 Gaussian 09, Revision D.01,
 Gaussian 09:  EM64L-G09RevD.01 24-Apr-2013

 ------------------------------------------------------------
 #b3lyp/gen pseudo=read opt freq=noraman scrf=(solvent=water)
 ------------------------------------------------------------

 ------------
 Estrutura 10
 ------------
 Symbolic Z-matrix:
 Charge = -2 Multiplicity = 1

 SCF Done:  E(RB3LYP) =  -13449.0943250     A.U. after   14 cycles
 SCF Done:  E(RB3LYP) =  -13449.0959657     A.U. after   10 cycles
 SCF Done:  E(RB3LYP) =  -13449.0961715     A.U. after    9 cycles
 SCF Done:  E(RB3LYP) =  -13449.0961719     A.U. after    7 cycles
 Optimization completed.
    -- Stationary point found.
 Normal termination of Gaussian 09 at Wed Aug 18 02:35:03 2021.

 ------------------------------------------------------------------
 #N Geom=AllCheck Guess=TCheck SCRF=Check GenChk RB3LYP/ChkBas Freq
 ------------------------------------------------------------------

 Structure from the checkpoint file:  "/home/scr/diego/Gau-25564.chk"
 ------------
 Estrutura 10
 ------------
 Charge = -2 Multiplicity = 1

                         Standard orientation:
 ---------------------------------------------------------------------
 Center     Atomic      Atomic             Coordinates (Angstroms)
 Number     Number       Type             X           Y           Z
 ---------------------------------------------------------------------
      1         78           0        0.000000    0.000000    0.175794
      2         17           0        0.000000    0.000000    2.599327
      3         35           0        1.813231    1.813226    0.181413
      4         35           0       -1.813231    1.813226    0.181413
      5         35           0        0.000000    0.000000   -2.379952
      6         35           0       -1.813231   -1.813226    0.181413
      7         35           0        1.813231   -1.813226    0.181413
 ---------------------------------------------------------------------

 SCF Done:  E(RB3LYP) =  -13449.0961719     A.U. after    1 cycles

 The electronic state is 1-A1.
 Alpha  occ. eigenvalues -- -482.74970-482.74837-482.74836-482.74836-482.74834
 Alpha  occ. eigenvalues -- -101.45039 -62.43071 -62.42938 -62.42938 -62.42938
 Alpha  occ. eigenvalues --  -62.42936 -56.26275 -56.26140 -56.26140 -56.26140
 Alpha  occ. eigenvalues --  -56.26139 -56.25972 -56.25972 -56.25841 -56.25841
 Alpha  occ. eigenvalues --  -56.25840 -56.25840 -56.25839 -56.25839 -56.25839
 Alpha  occ. eigenvalues --  -56.25837  -9.40191  -8.64777  -8.64643  -8.64643
 Alpha  occ. eigenvalues --   -8.64641  -8.64641  -7.17003  -7.16173  -7.16173
 Alpha  occ. eigenvalues --   -6.47966  -6.47824  -6.47824  -6.47824  -6.47824
 Alpha  occ. eigenvalues --   -6.46906  -6.46906  -6.46775  -6.46775  -6.46775
 Alpha  occ. eigenvalues --   -6.46775  -6.46774  -6.46774  -6.46774  -6.46774
 Alpha  occ. eigenvalues --   -4.00331  -2.59405  -2.59264  -2.59264  -2.59263
 Alpha  occ. eigenvalues --   -2.59263  -2.59113  -2.59113  -2.58977  -2.58977
 Alpha  occ. eigenvalues --   -2.58977  -2.58976  -2.58976  -2.58975  -2.58975
 Alpha  occ. eigenvalues --   -2.58975  -2.58281  -2.58281  -2.58151  -2.58151
 Alpha  occ. eigenvalues --   -2.58151  -2.58151  -2.58151  -2.58151  -2.58151
 Alpha  occ. eigenvalues --   -2.58151  -2.21397  -2.21279  -2.21279  -0.75314
 Alpha  occ. eigenvalues --   -0.72983  -0.71563  -0.71466  -0.71466  -0.71430
 Alpha  occ. eigenvalues --   -0.38926  -0.38239  -0.38216  -0.36935  -0.36935
 Alpha  occ. eigenvalues --   -0.36631  -0.31059  -0.30877  -0.30877  -0.26104
 Alpha  occ. eigenvalues --   -0.26104  -0.25517  -0.25477  -0.25246  -0.25246
 Alpha  occ. eigenvalues --   -0.25190  -0.25116  -0.25116  -0.23759  -0.23759
 Alpha  occ. eigenvalues --   -0.23450
 Alpha virt. eigenvalues --   -0.12060  -0.11719   0.05584   0.05584   0.05701
 Alpha virt. eigenvalues --    0.05838   0.20186   0.20186   0.20786   0.32887
 Alpha virt. eigenvalues --    0.33429   0.33679   0.33679   0.40031   0.42190

 Mulliken charges:
               1
     1  Pt  -0.691892
     2  Cl  -0.263025
     3  Br  -0.210720
     4  Br  -0.210720
     5  Br  -0.202203
     6  Br  -0.210720
     7  Br  -0.210720
 Sum of Mulliken charges =  -2.00000

 Dipole moment (field-independent basis, Debye):
    X=              0.0000    Y=              0.0000    Z=             -1.7605  Tot=              1.7605
 Quadrupole moment (field-independent basis, Debye-Ang):
   XX=           -157.4197   YY=           -157.4197   ZZ=           -157.2587
   XY=              0.0000   XZ=              0.0000   YZ=              0.0000

  Exact polarizability: 254.369   0.000 254.368   0.000   0.000 220.192
 Approx polarizability: 354.481   0.000 354.480   0.000   0.000 311.686

                      1                      2                      3
                     A2                     ?A                     ?A
 Frequencies --     47.0639                73.4568                73.4570
 Red. masses --     78.9183                73.0768                73.0772
 Frc consts  --      0.1030                 0.2323                 0.2323
 IR Inten    --      0.0000                 0.4653                 0.4653

                      4                      5                      6
                     A1                     ?A                     ?A
 Frequencies --     88.1128                89.4611                89.4618
 Red. masses --     78.9183                68.5281                68.5288
 Frc consts  --      0.3610                 0.3231                 0.3231
 IR Inten    --      0.0000                 2.0193                 2.0194

                      7                      8                      9
                     A1                     ?A                     ?A
 Frequencies --    109.2038               122.5102               122.5110
 Red. masses --     86.2501                46.7807                46.7802
 Frc consts  --      0.6060                 0.4137                 0.4137
 IR Inten    --      3.7479                 2.8551                 2.8549

                     10                     11                     12
                     A2                     A1                     A1
 Frequencies --    166.4614               181.5161               200.3342
 Red. masses --     78.9183                78.4436                86.2952
 Frc consts  --      1.2884                 1.5228                 2.0405
 IR Inten    --      0.0000                 0.3788                11.3994

                     13                     14                     15
                     ?A                     ?A                     A1
 Frequencies --    210.4510               210.4510               293.4156
 Red. masses --    114.5846               114.5847                40.6485
 Frc consts  --      2.9901                 2.9901                 2.0619
 IR Inten    --     55.2421                55.2427                70.7920

 - Thermochemistry -
 -------------------
 Temperature   298.150 Kelvin.  Pressure   1.00000 Atm.
 Atom     1 has atomic number 78 and mass 194.96480

 Molecular mass:   624.52533 amu.
 Principal axes and moments of inertia in atomic units:
                           1         2         3
     Eigenvalues --  6204.758106204.776247412.60273
           X            1.00000   0.00000   0.00000
           Y            0.00000   1.00000   0.00000
           Z            0.00000   0.00000   1.00000
 This molecule is an asymmetric top.
 Rotational symmetry number  2.
 Warning -- assumption of classical behavior for rotation
           may cause significant error
 Rotational temperatures (Kelvin)      0.01396     0.01396     0.01168
 Rotational constants (GHZ):           0.29086     0.29086     0.24347
 Zero-point vibrational energy      12428.4 (Joules/Mol)
                                    2.97046 (Kcal/Mol)
 Warning -- explicit consideration of  15 degrees of freedom as
           vibrations may cause significant error
 Vibrational temperatures:     67.71   105.69   105.69   126.77   128.71
          (Kelvin)            128.72   157.12   176.26   176.27   239.50
                              261.16   288.24   302.79   302.79   422.16

 Zero-point correction=                           0.004734 (Hartree/Particle)
 Thermal correction to Energy=                    0.017634
 Thermal correction to Enthalpy=                  0.018578
 Thermal correction to Gibbs Free Energy=        -0.040228
 Sum of electronic and zero-point Energies=         -13449.091438
 Sum of electronic and thermal Energies=            -13449.078538
 Sum of electronic and thermal Enthalpies=          -13449.077594
 Sum of electronic and thermal Free Energies=       -13449.136400

                     E (Thermal)             CV                S
                      KCal/Mol        Cal/Mol-Kelvin    Cal/Mol-Kelvin
 Total                   11.065             34.470            123.767
 Electronic               0.000              0.000              0.000
 Translational            0.889              2.981             45.178
 Rotational               0.889              2.981             32.634
 Vibrational              9.288             28.509             45.955
 Vibration     1          0.595              1.979              4.937
 Vibration     2          0.599              1.967              4.059
 Vibration     3          0.599              1.967              4.059
 Vibration     4          0.601              1.958              3.702
 Vibration     5          0.602              1.957              3.672
 Vibration     6          0.602              1.957              3.672
 Vibration     7          0.606              1.942              3.283
 Vibration     8          0.610              1.930              3.060
 Vibration     9          0.610              1.930              3.060
 Vibration    10          0.624              1.884              2.475
 Vibration    11          0.630              1.865              2.313
 Vibration    12          0.638              1.839              2.130
 Vibration    13          0.643              1.825              2.040
 Vibration    14          0.643              1.825              2.040
 Vibration    15          0.688              1.686              1.454

 Optimization completed.
    -- Stationary point found.
 Normal termination of Gaussian 09 at Wed Aug 18 02:36:07 2021.
