 Gaussian 09, Revision D.01,
 Gaussian 09:  EM64L-G09RevD.01 24-Apr-2013

 ------------------------------------------------------------
 #b3lyp/gen pseudo=read opt freq=noraman scrf=(solvent=water)
 ------------------------------------------------------------

 ------------
 Estrutura 12
 ------------
 Symbolic Z-matrix:
 Charge = -2 Multiplicity = 1

 SCF Done:  E(RB3LYP) =  -8711.00671590     A.U. after   17 cycles
 SCF Done:  E(RB3LYP) =  -8711.07941535     A.U. after   12 cycles
 SCF Done:  E(RB3LYP) =  -8711.14042083     A.U. after   13 cycles
 SCF Done:  E(RB3LYP) =  -8711.19070863     A.U. after   13 cycles
 SCF Done:  E(RB3LYP) =  -8711.20483867     A.U. after   13 cycles
 SCF Done:  E(RB3LYP) =  -8711.20750375     A.U. after   11 cycles
 SCF Done:  E(RB3LYP) =  -8711.20806212     A.U. after   11 cycles
 SCF Done:  E(RB3LYP) =  -8711.20830420     A.U. after   11 cycles
 SCF Done:  E(RB3LYP) =  -8711.20831860     A.U. after    9 cycles
 SCF Done:  E(RB3LYP) =  -8711.20832003     A.U. after    9 cycles
 SCF Done:  E(RB3LYP) =  -8711.20832017     A.U. after    7 cycles
 Optimization completed.
    -- Stationary point found.
 Normal termination of Gaussian 09 at Wed Aug 18 02:51:51 2021.

 ------------------------------------------------------------------
 #N Geom=AllCheck Guess=TCheck SCRF=Check GenChk RB3LYP/ChkBas Freq
 ------------------------------------------------------------------

 Structure from the checkpoint file:  "/home/scr/diego/Gau-28621.chk"
 ------------
 Estrutura 12
 ------------
 Charge = -2 Multiplicity = 1

                         Standard orientation:
 ---------------------------------------------------------------------
 Center     Atomic      Atomic             Coordinates (Angstroms)
 Number     Number       Type             X           Y           Z
 ---------------------------------------------------------------------
      1         78           0        0.000000    0.000000    0.194474
      2         35           0        0.000000    0.000000   -2.348928
      3         35           0        0.000000    2.575793    0.190646
      4         35           0        0.000000   -2.575793    0.190646
      5         17           0        0.000000    0.000000    2.614146
      6          7           0        2.168727    0.000000    0.198763
      7          7           0       -2.168727    0.000000    0.198763
      8          8           0        2.755097   -1.068517    0.202348
      9          8           0        2.755097    1.068517    0.202348
     10          8           0       -2.755097   -1.068517    0.202348
     11          8           0       -2.755097    1.068517    0.202348
 ---------------------------------------------------------------------

 SCF Done:  E(RB3LYP) =  -8711.20832017     A.U. after    1 cycles

 The electronic state is 1-A1.
 Alpha  occ. eigenvalues -- -482.75494-482.74313-482.74312-101.45615 -62.43595
 Alpha  occ. eigenvalues --  -62.42427 -62.42426 -56.26797 -56.26500 -56.26494
 Alpha  occ. eigenvalues --  -56.25633 -56.25633 -56.25334 -56.25333 -56.25315
 Alpha  occ. eigenvalues --  -56.25315 -19.14648 -19.14648 -19.14645 -19.14645
 Alpha  occ. eigenvalues --  -14.51443 -14.51442  -9.40771  -8.65304  -8.64141
 Alpha  occ. eigenvalues --   -8.64140  -7.17573  -7.16765  -7.16751  -6.48488
 Alpha  occ. eigenvalues --   -6.47447  -6.47423  -6.47342  -6.47342  -6.46294
 Alpha  occ. eigenvalues --   -6.46294  -6.46233  -6.46233  -4.00842  -2.59928
 Alpha  occ. eigenvalues --   -2.59648  -2.59628  -2.58811  -2.58810  -2.58779
 Alpha  occ. eigenvalues --   -2.58778  -2.58507  -2.58507  -2.58460  -2.58460
 Alpha  occ. eigenvalues --   -2.57637  -2.57637  -2.57635  -2.57635  -2.21935
 Alpha  occ. eigenvalues --   -2.21907  -2.21758  -1.19043  -1.18956  -1.01825
 Alpha  occ. eigenvalues --   -1.01813  -0.75738  -0.72761  -0.71503  -0.71057
 Alpha  occ. eigenvalues --   -0.62708  -0.60400  -0.52368  -0.50627  -0.50591
 Alpha  occ. eigenvalues --   -0.49989  -0.48923  -0.48801  -0.39628  -0.38315
 Alpha  occ. eigenvalues --   -0.37423  -0.36195  -0.35485  -0.30828  -0.30712
 Alpha  occ. eigenvalues --   -0.29949  -0.29819  -0.29774  -0.28187  -0.27736
 Alpha  occ. eigenvalues --   -0.27519  -0.25843  -0.25523  -0.25371  -0.25346
 Alpha  occ. eigenvalues --   -0.25318  -0.23710  -0.22948  -0.22436
 Alpha virt. eigenvalues --   -0.12134  -0.09391  -0.04247  -0.03112   0.05080
 Alpha virt. eigenvalues --    0.05843   0.06727   0.08208   0.20784   0.20948
 Alpha virt. eigenvalues --    0.22948   0.28571   0.33732   0.34031   0.34555

 Mulliken charges:
               1
     1  Pt  -0.365067
     2  Br  -0.189788
     3  Br  -0.191636
     4  Br  -0.191636
     5  Cl  -0.256938
     6  N    0.152904
     7  N    0.152904
     8  O   -0.277685
     9  O   -0.277685
    10  O   -0.277685
    11  O   -0.277685
 Sum of Mulliken charges =  -2.00000

 Dipole moment (field-independent basis, Debye):
    X=              0.0000    Y=              0.0000    Z=             -2.0203  Tot=              2.0203
 Quadrupole moment (field-independent basis, Debye-Ang):
   XX=           -164.0969   YY=           -158.6960   ZZ=           -147.1647
   XY=              0.0000   XZ=              0.0000   YZ=              0.0000

  Exact polarizability: 209.717   0.000 278.039   0.000   0.000 200.367
 Approx polarizability: 307.290   0.000 424.098   0.000   0.000 276.753

 ******    2 imaginary frequencies (negative Signs) ******

                      1                      2                      3
                     B2                     A2                     A1
 Frequencies --    -92.8176               -87.8650                49.9111
 Red. masses --     16.6087                15.9985                25.5529
 Frc consts  --      0.0843                 0.0728                 0.0375
 IR Inten    --      0.0136                 0.0000                 2.8498

                      4                      5                      6
                     B1                     B2                     B1
 Frequencies --     50.9344                76.0370                90.5119
 Red. masses --     31.2759                64.8093                33.6634
 Frc consts  --      0.0478                 0.2208                 0.1625
 IR Inten    --      0.5159                 1.9413                 0.1172

                      7                      8                      9
                     A1                     B2                     B1
 Frequencies --     96.8457               113.7983               128.2923
 Red. masses --     35.4233                35.2039                61.0902
 Frc consts  --      0.1957                 0.2686                 0.5924
 IR Inten    --      0.0053                 0.9322                 0.0017

                     10                     11                     12
                     A2                     B2                     A1
 Frequencies --    129.0690               150.9152               165.6129
 Red. masses --     22.2409                20.4891                64.9482
 Frc consts  --      0.2183                 0.2749                 1.0496
 IR Inten    --      0.0000                 3.7216                 0.0331

                     13                     14                     15
                     B2                     A1                     A1
 Frequencies --    198.2845               200.9465               235.5321
 Red. masses --     52.6848                73.8367                16.2996
 Frc consts  --      1.2204                 1.7566                 0.5328
 IR Inten    --     50.5656                10.4829                 1.1652

                     16                     17                     18
                     B1                     A2                     A1
 Frequencies --    238.7910               268.1871               300.9060
 Red. masses --     19.8823                15.9180                40.7241
 Frc consts  --      0.6680                 0.6745                 2.1725
 IR Inten    --    109.8823                 0.0000                72.2347

                     19                     20                     21
                     B2                     B1                     A1
 Frequencies --    338.1093               527.4342               606.8355
 Red. masses --     18.5211                14.3461                14.4987
 Frc consts  --      1.2475                 2.3514                 3.1457
 IR Inten    --      3.2864                 0.0034                35.8408

                     22                     23                     24
                     A1                     B1                     B1
 Frequencies --    835.9825               839.4553              1394.5416
 Red. masses --     15.3579                15.3177                15.0863
 Frc consts  --      6.3238                 6.3597                17.2861
 IR Inten    --      0.6216               418.6163              1480.8236

                     25                     26                     27
                     A1                     A2                     B2
 Frequencies --   1422.4301              1597.2208              1610.6038
 Red. masses --     15.1195                14.6624                14.6399
 Frc consts  --     18.0240                22.0387                22.3751
 IR Inten    --      1.7326                 0.0000              1071.7733

 - Thermochemistry -
 -------------------
 Temperature   298.150 Kelvin.  Pressure   1.00000 Atm.
 Atom     1 has atomic number 78 and mass 194.96480

 Molecular mass:   558.67447 amu.
 Principal axes and moments of inertia in atomic units:
                           1         2         3
     Eigenvalues --  4672.738726205.128426468.56573
           X            0.00000   0.00000   1.00000
           Y            1.00000   0.00000   0.00000
           Z            0.00000   1.00000   0.00000
 This molecule is an asymmetric top.
 Rotational symmetry number  2.
 Warning -- assumption of classical behavior for rotation
           may cause significant error
 Rotational temperatures (Kelvin)      0.01854     0.01396     0.01339
 Rotational constants (GHZ):           0.38623     0.29085     0.27900
    2 imaginary frequencies ignored.
 Zero-point vibrational energy      69785.3 (Joules/Mol)
                                   16.67908 (Kcal/Mol)
 Warning -- explicit consideration of  19 degrees of freedom as
           vibrations may cause significant error
 Vibrational temperatures:     71.81    73.28   109.40   130.23   139.34
          (Kelvin)            163.73   184.58   185.70   217.13   238.28
                              285.29   289.12   338.88   343.57   385.86
                              432.94   486.46   758.86   873.10  1202.79
                             1207.79  2006.43  2046.56  2298.04  2317.30

 Zero-point correction=                           0.026580 (Hartree/Particle)
 Thermal correction to Energy=                    0.040590
 Thermal correction to Enthalpy=                  0.041534
 Thermal correction to Gibbs Free Energy=        -0.018191
 Sum of electronic and zero-point Energies=          -8711.181740
 Sum of electronic and thermal Energies=             -8711.167730
 Sum of electronic and thermal Enthalpies=           -8711.166786
 Sum of electronic and thermal Free Energies=        -8711.226511

                     E (Thermal)             CV                S
                      KCal/Mol        Cal/Mol-Kelvin    Cal/Mol-Kelvin
 Total                   25.471             41.311            125.702
 Electronic               0.000              0.000              0.000
 Translational            0.889              2.981             44.846
 Rotational               0.889              2.981             32.217
 Vibrational             23.693             35.349             48.639
 Vibration     1          0.595              1.978              4.821
 Vibration     2          0.595              1.977              4.781
 Vibration     3          0.599              1.965              3.991
 Vibration     4          0.602              1.956              3.649
 Vibration     5          0.603              1.951              3.517
 Vibration     6          0.607              1.938              3.203
 Vibration     7          0.611              1.925              2.971
 Vibration     8          0.612              1.924              2.960
 Vibration     9          0.618              1.902              2.661
 Vibration    10          0.624              1.885              2.485
 Vibration    11          0.637              1.842              2.149
 Vibration    12          0.638              1.839              2.124
 Vibration    13          0.655              1.786              1.836
 Vibration    14          0.657              1.781              1.812
 Vibration    15          0.673              1.732              1.608
 Vibration    16          0.693              1.672              1.412
 Vibration    17          0.718              1.599              1.221
 Vibration    18          0.882              1.189              0.593
 Vibration    19          0.966              1.017              0.438

 Optimization completed.
    -- Stationary point found.
 Normal termination of Gaussian 09 at Wed Aug 18 02:53:20 2021.
