 Gaussian 09, Revision D.01,
 Gaussian 09:  EM64L-G09RevD.01 24-Apr-2013

 ------------------------------------------------------------
 #b3lyp/gen pseudo=read opt freq=noraman scrf=(solvent=water)
 ------------------------------------------------------------

 ------------
 Estrutura 13
 ------------
 Symbolic Z-matrix:
 Charge = -2 Multiplicity = 1

 SCF Done:  E(RB3LYP) =  -10824.8154210     A.U. after   18 cycles
 SCF Done:  E(RB3LYP) =  -10824.8878552     A.U. after   12 cycles
 SCF Done:  E(RB3LYP) =  -10824.9483266     A.U. after   14 cycles
 SCF Done:  E(RB3LYP) =  -10824.9987098     A.U. after   13 cycles
 SCF Done:  E(RB3LYP) =  -10825.0126349     A.U. after   13 cycles
 SCF Done:  E(RB3LYP) =  -10825.0156662     A.U. after   12 cycles
 SCF Done:  E(RB3LYP) =  -10825.0164651     A.U. after   13 cycles
 SCF Done:  E(RB3LYP) =  -10825.0169006     A.U. after   12 cycles
 SCF Done:  E(RB3LYP) =  -10825.0172663     A.U. after   11 cycles
 SCF Done:  E(RB3LYP) =  -10824.9411247     A.U. after   14 cycles
 SCF Done:  E(RB3LYP) =  -10825.0233661     A.U. after   14 cycles
 SCF Done:  E(RB3LYP) =  -10825.0235092     A.U. after   14 cycles
 SCF Done:  E(RB3LYP) =  -10825.0180920     A.U. after   13 cycles
 SCF Done:  E(RB3LYP) =  -10825.0237446     A.U. after   10 cycles
 SCF Done:  E(RB3LYP) =  -10825.0239600     A.U. after   12 cycles
 SCF Done:  E(RB3LYP) =  -10825.0242223     A.U. after   11 cycles
 SCF Done:  E(RB3LYP) =  -10825.0241897     A.U. after   10 cycles
 SCF Done:  E(RB3LYP) =  -10825.0241623     A.U. after   10 cycles
 SCF Done:  E(RB3LYP) =  -10825.0241563     A.U. after    9 cycles
 Optimization completed.
    -- Stationary point found.
 Normal termination of Gaussian 09 at Wed Aug 18 03:07:53 2021.

 ------------------------------------------------------------------
 #N Geom=AllCheck Guess=TCheck SCRF=Check GenChk RB3LYP/ChkBas Freq
 ------------------------------------------------------------------

 Structure from the checkpoint file:  "/home/scr/diego/Gau-29671.chk"
 ------------
 Estrutura 13
 ------------
 Charge = -2 Multiplicity = 1

                         Standard orientation:
 ---------------------------------------------------------------------
 Center     Atomic      Atomic             Coordinates (Angstroms)
 Number     Number       Type             X           Y           Z
 ---------------------------------------------------------------------
      1         78           0       -0.000066    0.000084    0.000000
      2         35           0        1.820456    1.805680    0.000000
      3         35           0       -1.857803    1.764446    0.000000
      4         35           0        1.857567   -1.764665    0.000000
      5          7           0        0.000041    0.000236    2.137728
      6          7           0        0.000041    0.000236   -2.137728
      7          8           0        0.000041   -1.071223    2.720844
      8          8           0        0.000121    1.071812    2.720654
      9          8           0        0.000041   -1.071223   -2.720844
     10          8           0        0.000121    1.071812   -2.720654
     11         35           0       -1.820162   -1.806012    0.000000
 ---------------------------------------------------------------------

 SCF Done:  E(RB3LYP) =  -10825.0241563     A.U. after    1 cycles

 The electronic state is 1-A'.
 Alpha  occ. eigenvalues -- -482.74910-482.74909-482.74886-482.74885 -62.43020
 Alpha  occ. eigenvalues --  -62.43018 -62.42996 -62.42995 -56.26221 -56.26220
 Alpha  occ. eigenvalues --  -56.26198 -56.26197 -56.25921 -56.25920 -56.25919
 Alpha  occ. eigenvalues --  -56.25918 -56.25897 -56.25896 -56.25895 -56.25894
 Alpha  occ. eigenvalues --  -19.14653 -19.14652 -19.14650 -19.14648 -14.51366
 Alpha  occ. eigenvalues --  -14.51365  -8.64732  -8.64729  -8.64707  -8.64706
 Alpha  occ. eigenvalues --   -6.47917  -6.47916  -6.47893  -6.47893  -6.46863
 Alpha  occ. eigenvalues --   -6.46861  -6.46861  -6.46860  -6.46838  -6.46838
 Alpha  occ. eigenvalues --   -6.46836  -6.46835  -4.00852  -2.59356  -2.59355
 Alpha  occ. eigenvalues --   -2.59332  -2.59331  -2.59068  -2.59067  -2.59066
 Alpha  occ. eigenvalues --   -2.59066  -2.59044  -2.59043  -2.59043  -2.59043
 Alpha  occ. eigenvalues --   -2.58239  -2.58238  -2.58237  -2.58237  -2.58214
 Alpha  occ. eigenvalues --   -2.58213  -2.58213  -2.58213  -2.22027  -2.21865
 Alpha  occ. eigenvalues --   -2.21769  -1.18900  -1.18796  -1.01791  -1.01775
 Alpha  occ. eigenvalues --   -0.73230  -0.71716  -0.71582  -0.71504  -0.63087
 Alpha  occ. eigenvalues --   -0.60454  -0.52530  -0.50648  -0.50580  -0.49902
 Alpha  occ. eigenvalues --   -0.48945  -0.48795  -0.38763  -0.38723  -0.37133
 Alpha  occ. eigenvalues --   -0.36258  -0.34961  -0.30834  -0.30329  -0.30170
 Alpha  occ. eigenvalues --   -0.29867  -0.29762  -0.27320  -0.26976  -0.26974
 Alpha  occ. eigenvalues --   -0.25550  -0.25382  -0.25075  -0.24978  -0.24743
 Alpha  occ. eigenvalues --   -0.24187  -0.23506  -0.23097
 Alpha virt. eigenvalues --   -0.12346  -0.09058  -0.04387  -0.03071   0.05022
 Alpha virt. eigenvalues --    0.05890   0.06826   0.08499   0.20694   0.20843
 Alpha virt. eigenvalues --    0.22318   0.27224   0.33182   0.33545   0.34968

 Mulliken charges:
               1
     1  Pt  -0.396375
     2  Br  -0.193768
     3  Br  -0.193912
     4  Br  -0.193942
     5  N    0.147936
     6  N    0.147936
     7  O   -0.281025
     8  O   -0.281031
     9  O   -0.281025
    10  O   -0.281031
    11  Br  -0.193763
 Sum of Mulliken charges =  -2.00000

 Dipole moment (field-independent basis, Debye):
    X=             -0.0006    Y=             -0.0002    Z=              0.0000  Tot=              0.0006
 Quadrupole moment (field-independent basis, Debye-Ang):
   XX=           -154.3149   YY=           -163.6047   ZZ=           -169.8777
   XY=             -0.0342   XZ=              0.0000   YZ=              0.0000

  Exact polarizability: 248.876   0.461 269.697   0.000   0.000 205.835
 Approx polarizability: 342.898   0.907 406.925   0.000   0.000 297.364

 ******    1 imaginary frequencies (negative Signs) ******

                      1                      2                      3
                     A"                     A'                     A'
 Frequencies --    -14.9953                62.5331                78.2541
 Red. masses --     32.7639                43.9949                70.2444
 Frc consts  --      0.0043                 0.1014                 0.2534
 IR Inten    --      0.0000                 4.1040                 0.0001

                      4                      5                      6
                     A'                     A'                     A"
 Frequencies --     82.7334                85.9515                90.5405
 Red. masses --     16.9328                60.2325                22.3918
 Frc consts  --      0.0683                 0.2622                 0.1081
 IR Inten    --      0.0001                 2.6297                 0.0042

                      7                      8                      9
                     A"                     A"                     A"
 Frequencies --     95.9753               103.8217               112.0102
 Red. masses --     22.9279                21.9169                58.5623
 Frc consts  --      0.1244                 0.1392                 0.4329
 IR Inten    --      0.0000                 0.0000                 1.3318

                     10                     11                     12
                     A'                     A'                     A'
 Frequencies --    116.3755               120.5996               168.0949
 Red. masses --     20.7698                20.2489                77.4425
 Frc consts  --      0.1657                 0.1735                 1.2893
 IR Inten    --      1.2138                 0.2358                 0.0000

                     13                     14                     15
                     A'                     A'                     A'
 Frequencies --    178.2859               206.3970               214.4920
 Red. masses --     71.6044                59.9584               101.7048
 Frc consts  --      1.3410                 1.5049                 2.7569
 IR Inten    --      0.0000                42.0306                70.3564

                     16                     17                     18
                     A'                     A"                     A"
 Frequencies --    241.3002               246.3454               267.8397
 Red. masses --     15.6958                21.1393                15.6419
 Frc consts  --      0.5385                 0.7558                 0.6611
 IR Inten    --      0.0000               106.2269                 0.0000

                     19                     20                     21
                     A'                     A"                     A'
 Frequencies --    347.2057               526.4635               616.9773
 Red. masses --     18.4278                14.3580                14.5241
 Frc consts  --      1.3089                 2.3447                 3.2575
 IR Inten    --      2.5214                 0.0000                31.1707

                     22                     23                     24
                     A'                     A"                     A"
 Frequencies --    834.0646               840.1167              1399.7122
 Red. masses --     15.3467                15.3336                15.0573
 Frc consts  --      6.2902                 6.3764                17.3810
 IR Inten    --      0.0000               335.8461              1343.4947

                     25                     26                     27
                     A'                     A"                     A'
 Frequencies --   1421.9422              1600.0196              1611.5830
 Red. masses --     15.0973                14.6572                14.6347
 Frc consts  --     17.9851                22.1082                22.3943
 IR Inten    --      0.0001                 0.0001              1074.5836

 - Thermochemistry -
 -------------------
 Temperature   298.150 Kelvin.  Pressure   1.00000 Atm.
 Atom     1 has atomic number 78 and mass 194.96480

 Molecular mass:   602.62395 amu.
 Principal axes and moments of inertia in atomic units:
                           1         2         3
     Eigenvalues --  5960.486916004.363377668.19862
           X            0.11937   0.99285   0.00000
           Y            0.99285  -0.11937   0.00000
           Z            0.00000   0.00000   1.00000
 This molecule is an asymmetric top.
 Rotational symmetry number  1.
 Warning -- assumption of classical behavior for rotation
           may cause significant error
 Rotational temperatures (Kelvin)      0.01453     0.01443     0.01130
 Rotational constants (GHZ):           0.30278     0.30057     0.23535
    1 imaginary frequencies ignored.
 Zero-point vibrational energy      69799.9 (Joules/Mol)
                                   16.68258 (Kcal/Mol)
 Warning -- explicit consideration of  20 degrees of freedom as
           vibrations may cause significant error
 Vibrational temperatures:     89.97   112.59   119.03   123.66   130.27
          (Kelvin)            138.09   149.38   161.16   167.44   173.52
                              241.85   256.51   296.96   308.61   347.18
                              354.44   385.36   499.55   757.46   887.69
                             1200.03  1208.74  2013.87  2045.86  2302.07
                             2318.71

 Zero-point correction=                           0.026585 (Hartree/Particle)
 Thermal correction to Energy=                    0.041495
 Thermal correction to Enthalpy=                  0.042440
 Thermal correction to Gibbs Free Energy=        -0.020099
 Sum of electronic and zero-point Energies=         -10824.997571
 Sum of electronic and thermal Energies=            -10824.982661
 Sum of electronic and thermal Enthalpies=          -10824.981717
 Sum of electronic and thermal Free Energies=       -10825.044255

                     E (Thermal)             CV                S
                      KCal/Mol        Cal/Mol-Kelvin    Cal/Mol-Kelvin
 Total                   26.039             43.416            131.624
 Electronic               0.000              0.000              0.000
 Translational            0.889              2.981             45.072
 Rotational               0.889              2.981             33.972
 Vibrational             24.261             37.455             52.580
 Vibration     1          0.597              1.972              4.376
 Vibration     2          0.600              1.964              3.934
 Vibration     3          0.600              1.961              3.825
 Vibration     4          0.601              1.959              3.750
 Vibration     5          0.602              1.956              3.648
 Vibration     6          0.603              1.952              3.534
 Vibration     7          0.605              1.946              3.381
 Vibration     8          0.607              1.940              3.234
 Vibration     9          0.608              1.936              3.160
 Vibration    10          0.609              1.932              3.091
 Vibration    11          0.625              1.882              2.457
 Vibration    12          0.629              1.869              2.346
 Vibration    13          0.641              1.831              2.075
 Vibration    14          0.644              1.819              2.005
 Vibration    15          0.658              1.777              1.793
 Vibration    16          0.661              1.769              1.757
 Vibration    17          0.673              1.732              1.610
 Vibration    18          0.725              1.581              1.179
 Vibration    19          0.881              1.191              0.595
 Vibration    20          0.977              0.996              0.421

 Normal termination of Gaussian 09 at Wed Aug 18 03:10:17 2021.
