 Gaussian 09, Revision D.01,
 Gaussian 09:  EM64L-G09RevD.01 24-Apr-2013

 ------------------------------------------------------------
 #b3lyp/gen pseudo=read opt freq=noraman scrf=(solvent=water)
 ------------------------------------------------------------

 ------------
 Estrutura 19
 ------------
 Symbolic Z-matrix:
 Charge = -2 Multiplicity = 1

 SCF Done:  E(RB3LYP) =  -7107.64299259     A.U. after   13 cycles
 SCF Done:  E(RB3LYP) =  -7107.66399166     A.U. after   10 cycles
 SCF Done:  E(RB3LYP) =  -7107.67077341     A.U. after   10 cycles
 SCF Done:  E(RB3LYP) =  -7107.67078710     A.U. after    8 cycles
 SCF Done:  E(RB3LYP) =  -7107.67079041     A.U. after    8 cycles
 SCF Done:  E(RB3LYP) =  -7107.67079087     A.U. after    7 cycles
 Optimization completed.
    -- Stationary point found.
 Normal termination of Gaussian 09 at Wed Aug 18 03:18:35 2021.

 ------------------------------------------------------------------
 #N Geom=AllCheck Guess=TCheck SCRF=Check GenChk RB3LYP/ChkBas Freq
 ------------------------------------------------------------------

 Structure from the checkpoint file:  "/home/scr/diego/Gau-2746.chk"
 ------------
 Estrutura 19
 ------------
 Charge = -2 Multiplicity = 1

                         Standard orientation:
 ---------------------------------------------------------------------
 Center     Atomic      Atomic             Coordinates (Angstroms)
 Number     Number       Type             X           Y           Z
 ---------------------------------------------------------------------
      1         78           0        0.000000    0.000000    0.317002
      2         17           0       -2.414469    0.000000    0.304050
      3         17           0        0.000000    1.719986    2.027743
      4         17           0        0.000000   -1.719986    2.027743
      5         17           0        2.414469    0.000000    0.304050
      6         35           0        0.000000   -1.805983   -1.485816
      7         35           0        0.000000    1.805983   -1.485816
 ---------------------------------------------------------------------

 SCF Done:  E(RB3LYP) =  -7107.67079087     A.U. after    1 cycles

 The electronic state is 1-A1.
 Alpha  occ. eigenvalues -- -482.74964-482.74962-101.45150-101.45150-101.44964
 Alpha  occ. eigenvalues -- -101.44958 -62.43072 -62.43071 -56.26276 -56.26276
 Alpha  occ. eigenvalues --  -56.25972 -56.25971 -56.25971 -56.25970  -9.40319
 Alpha  occ. eigenvalues --   -9.40316  -9.40128  -9.40126  -8.64782  -8.64782
 Alpha  occ. eigenvalues --   -7.17136  -7.17134  -7.16937  -7.16937  -7.16295
 Alpha  occ. eigenvalues --   -7.16295  -7.16295  -7.16295  -7.16111  -7.16111
 Alpha  occ. eigenvalues --   -7.16110  -7.16110  -6.47976  -6.47976  -6.46908
 Alpha  occ. eigenvalues --   -6.46908  -6.46908  -6.46908  -4.00905  -2.59413
 Alpha  occ. eigenvalues --   -2.59413  -2.59121  -2.59121  -2.59120  -2.59120
 Alpha  occ. eigenvalues --   -2.58281  -2.58281  -2.58281  -2.58281  -2.21958
 Alpha  occ. eigenvalues --   -2.21837  -2.21824  -0.76465  -0.74649  -0.74635
 Alpha  occ. eigenvalues --   -0.74515  -0.72077  -0.71610  -0.39723  -0.39154
 Alpha  occ. eigenvalues --   -0.38744  -0.37677  -0.37657  -0.37371  -0.31809
 Alpha  occ. eigenvalues --   -0.31562  -0.31536  -0.26823  -0.26758  -0.26439
 Alpha  occ. eigenvalues --   -0.26416  -0.26140  -0.26004  -0.25430  -0.25428
 Alpha  occ. eigenvalues --   -0.25274  -0.24519  -0.24462  -0.24061
 Alpha virt. eigenvalues --   -0.11654  -0.11265   0.05637   0.05654   0.05826
 Alpha virt. eigenvalues --    0.07447   0.22417   0.22502   0.22844   0.35155
 Alpha virt. eigenvalues --    0.35889   0.36212   0.39750   0.44144   0.49129

 Mulliken charges:
               1
     1  Pt  -0.525185
     2  Cl  -0.262953
     3  Cl  -0.268944
     4  Cl  -0.268944
     5  Cl  -0.262953
     6  Br  -0.205510
     7  Br  -0.205510
 Sum of Mulliken charges =  -2.00000

 Dipole moment (field-independent basis, Debye):
    X=              0.0000    Y=              0.0000    Z=             -3.1661  Tot=              3.1661
 Quadrupole moment (field-independent basis, Debye-Ang):
   XX=           -138.1157   YY=           -138.5075   ZZ=           -139.4422
   XY=              0.0000   XZ=              0.0000   YZ=              0.0000

  Exact polarizability: 175.166   0.000 205.133   0.000   0.000 202.731
 Approx polarizability: 252.779   0.000 290.303   0.000   0.000 288.398

                      1                      2                      3
                     A2                     A1                     B2
 Frequencies --     80.5605                82.3870                92.2616
 Red. masses --     49.2707                69.9562                41.3513
 Frc consts  --      0.1884                 0.2798                 0.2074
 IR Inten    --      0.0000                 1.0320                 0.6326

                      4                      5                      6
                     B1                     A1                     A2
 Frequencies --    112.4947               121.7249               124.7290
 Red. masses --     49.7984                35.3161                35.4218
 Frc consts  --      0.3713                 0.3083                 0.3247
 IR Inten    --      0.9791                 0.0286                 0.0000

                      7                      8                      9
                     B2                     A1                     B1
 Frequencies --    140.8858               144.8592               145.4494
 Red. masses --     43.3977                43.6340                41.0042
 Frc consts  --      0.5075                 0.5395                 0.5111
 IR Inten    --      1.6330                 1.7350                 0.4365

                     10                     11                     12
                     B2                     A1                     A1
 Frequencies --    197.2782               204.4937               287.7059
 Red. masses --     78.6545                83.7101                37.5493
 Frc consts  --      1.8036                 2.0625                 1.8313
 IR Inten    --      8.2363                12.8992                32.9841

                     13                     14                     15
                     B2                     A1                     B1
 Frequencies --    287.7667               302.7244               304.0085
 Red. masses --     42.1516                37.6715                45.7572
 Frc consts  --      2.0566                 2.0340                 2.4916
 IR Inten    --     82.6371                46.2481                99.7523

 - Thermochemistry -
 -------------------
 Temperature   298.150 Kelvin.  Pressure   1.00000 Atm.
 Atom     1 has atomic number 78 and mass 194.96480

 Molecular mass:   492.67688 amu.
 Principal axes and moments of inertia in atomic units:
                           1         2         3
     Eigenvalues --  3819.596624033.194644940.85171
           X            0.00000   0.00000   1.00000
           Y            1.00000   0.00000   0.00000
           Z            0.00000   1.00000   0.00000
 This molecule is an asymmetric top.
 Rotational symmetry number  2.
 Warning -- assumption of classical behavior for rotation
           may cause significant error
 Rotational temperatures (Kelvin)      0.02268     0.02148     0.01753
 Rotational constants (GHZ):           0.47250     0.44747     0.36527
 Zero-point vibrational energy      15726.9 (Joules/Mol)
                                    3.75882 (Kcal/Mol)
 Warning -- explicit consideration of  15 degrees of freedom as
           vibrations may cause significant error
 Vibrational temperatures:    115.91   118.54   132.74   161.85   175.13
          (Kelvin)            179.46   202.70   208.42   209.27   283.84
                              294.22   413.94   414.03   435.55   437.40

 Zero-point correction=                           0.005990 (Hartree/Particle)
 Thermal correction to Energy=                    0.017992
 Thermal correction to Enthalpy=                  0.018936
 Thermal correction to Gibbs Free Energy=        -0.035572
 Sum of electronic and zero-point Energies=          -7107.664801
 Sum of electronic and thermal Energies=             -7107.652799
 Sum of electronic and thermal Enthalpies=           -7107.651855
 Sum of electronic and thermal Free Energies=        -7107.706363

                     E (Thermal)             CV                S
                      KCal/Mol        Cal/Mol-Kelvin    Cal/Mol-Kelvin
 Total                   11.290             33.771            114.721
 Electronic               0.000              0.000              0.000
 Translational            0.889              2.981             44.472
 Rotational               0.889              2.981             31.321
 Vibrational              9.513             27.810             38.929
 Vibration     1          0.600              1.962              3.877
 Vibration     2          0.600              1.961              3.833
 Vibration     3          0.602              1.955              3.612
 Vibration     4          0.607              1.939              3.225
 Vibration     5          0.609              1.931              3.073
 Vibration     6          0.610              1.928              3.026
 Vibration     7          0.615              1.912              2.792
 Vibration     8          0.616              1.908              2.739
 Vibration     9          0.617              1.908              2.731
 Vibration    10          0.637              1.844              2.158
 Vibration    11          0.640              1.834              2.092
 Vibration    12          0.685              1.697              1.487
 Vibration    13          0.685              1.696              1.487
 Vibration    14          0.694              1.669              1.402
 Vibration    15          0.695              1.666              1.395

 Optimization completed.
    -- Stationary point found.
 Normal termination of Gaussian 09 at Wed Aug 18 03:19:14 2021.
