 Gaussian 09, Revision D.01,
 Gaussian 09:  EM64L-G09RevD.01 24-Apr-2013

 ------------------------------------------------------------
 #b3lyp/gen pseudo=read opt freq=noraman scrf=(solvent=water)
 ------------------------------------------------------------

 ------------
 Estrutura 20
 ------------
 Symbolic Z-matrix:
 Charge = -2 Multiplicity = 1

 SCF Done:  E(RB3LYP) =  -7107.64349257     A.U. after   12 cycles
 SCF Done:  E(RB3LYP) =  -7107.66410851     A.U. after    9 cycles
 SCF Done:  E(RB3LYP) =  -7107.67067664     A.U. after    9 cycles
 SCF Done:  E(RB3LYP) =  -7107.67070596     A.U. after    7 cycles
 SCF Done:  E(RB3LYP) =  -7107.67070737     A.U. after    6 cycles
 Optimization completed.
    -- Stationary point found.
 Normal termination of Gaussian 09 at Wed Aug 18 03:20:04 2021.

 ------------------------------------------------------------------
 #N Geom=AllCheck Guess=TCheck SCRF=Check GenChk RB3LYP/ChkBas Freq
 ------------------------------------------------------------------

 Structure from the checkpoint file:  "/home/scr/diego/Gau-3431.chk"
 ------------
 Estrutura 20
 ------------
 Charge = -2 Multiplicity = 1

                         Standard orientation:
 ---------------------------------------------------------------------
 Center     Atomic      Atomic             Coordinates (Angstroms)
 Number     Number       Type             X           Y           Z
 ---------------------------------------------------------------------
      1         78           0        0.000000    0.000000    0.000000
      2         17           0        0.000000    2.414182    0.000000
      3         17           0        2.414182    0.000000    0.000000
      4         35           0        0.000000    0.000000    2.567388
      5         35           0        0.000000    0.000000   -2.567388
      6         17           0       -2.414182    0.000000    0.000000
      7         17           0        0.000000   -2.414182    0.000000
 ---------------------------------------------------------------------

 SCF Done:  E(RB3LYP) =  -7107.67070737     A.U. after    1 cycles

 The electronic state is 1-A1G.
 Alpha  occ. eigenvalues -- -482.74825-482.74824-101.45140-101.45134-101.45134
 Alpha  occ. eigenvalues -- -101.45125 -62.42933 -62.42932 -56.26134 -56.26133
 Alpha  occ. eigenvalues --  -56.25833 -56.25833 -56.25833 -56.25833  -9.40303
 Alpha  occ. eigenvalues --   -9.40303  -9.40303  -9.40297  -8.64640  -8.64638
 Alpha  occ. eigenvalues --   -7.17120  -7.17120  -7.17119  -7.17118  -7.16281
 Alpha  occ. eigenvalues --   -7.16280  -7.16280  -7.16280  -7.16279  -7.16279
 Alpha  occ. eigenvalues --   -7.16279  -7.16277  -6.47823  -6.47823  -6.46771
 Alpha  occ. eigenvalues --   -6.46771  -6.46771  -6.46771  -4.00913  -2.59262
 Alpha  occ. eigenvalues --   -2.59261  -2.58973  -2.58973  -2.58973  -2.58973
 Alpha  occ. eigenvalues --   -2.58148  -2.58148  -2.58147  -2.58147  -2.21961
 Alpha  occ. eigenvalues --   -2.21961  -2.21718  -0.76578  -0.74790  -0.74620
 Alpha  occ. eigenvalues --   -0.74620  -0.71908  -0.71455  -0.39871  -0.39430
 Alpha  occ. eigenvalues --   -0.38236  -0.37942  -0.37389  -0.37389  -0.31824
 Alpha  occ. eigenvalues --   -0.31824  -0.31455  -0.27050  -0.26882  -0.26882
 Alpha  occ. eigenvalues --   -0.25751  -0.25680  -0.25680  -0.25463  -0.25463
 Alpha  occ. eigenvalues --   -0.25388  -0.25107  -0.24156  -0.24156
 Alpha virt. eigenvalues --   -0.11915  -0.11029   0.05458   0.05832   0.05832
 Alpha virt. eigenvalues --    0.07524   0.21741   0.22897   0.22897   0.34949
 Alpha virt. eigenvalues --    0.34949   0.37090   0.37877   0.47478   0.50660

 Mulliken charges:
               1
     1  Pt  -0.515238
     2  Cl  -0.262710
     3  Cl  -0.262710
     4  Br  -0.216961
     5  Br  -0.216961
     6  Cl  -0.262710
     7  Cl  -0.262710
 Sum of Mulliken charges =  -2.00000

 Dipole moment (field-independent basis, Debye):
    X=              0.0000    Y=              0.0000    Z=              0.0000  Tot=              0.0000
 Quadrupole moment (field-independent basis, Debye-Ang):
   XX=           -138.1089   YY=           -138.1089   ZZ=           -139.0223
   XY=              0.0000   XZ=              0.0000   YZ=              0.0000

  Exact polarizability: 175.231   0.000 175.231   0.000   0.000 240.544
 Approx polarizability: 252.772   0.000 252.772   0.000   0.000 335.641

                      1                      2                      3
                     B2U                    EU                     EU
 Frequencies --     66.0701                88.9554                88.9554
 Red. masses --     34.9689                64.9758                64.9758
 Frc consts  --      0.0899                 0.3029                 0.3029
 IR Inten    --      0.0000                 0.9333                 0.9333

                      4                      5                      6
                     EG                     EG                     EU
 Frequencies --     91.8207                91.8207               136.4938
 Red. masses --     41.4701                41.4701                42.0387
 Frc consts  --      0.2060                 0.2060                 0.4615
 IR Inten    --      0.0000                 0.0000                 1.0568

                      7                      8                      9
                     EU                     A2U                    B2G
 Frequencies --    136.4938               136.7477               140.8976
 Red. masses --     42.0387                43.8496                34.9689
 Frc consts  --      0.4615                 0.4831                 0.4090
 IR Inten    --      1.0568                 6.3805                 0.0000

                     10                     11                     12
                     A1G                    A2U                    B1G
 Frequencies --    171.5036               212.3333               277.5508
 Red. masses --     78.3311               106.5641                34.9689
 Frc consts  --      1.3575                 2.8307                 1.5871
 IR Inten    --      0.0000                60.5093                 0.0000

                     13                     14                     15
                     A1G                    EU                     EU
 Frequencies --    300.4453               301.5796               301.5796
 Red. masses --     35.0854                46.2788                46.2788
 Frc consts  --      1.8660                 2.4799                 2.4799
 IR Inten    --      0.0000                98.6216                98.6216

 - Thermochemistry -
 -------------------
 Temperature   298.150 Kelvin.  Pressure   1.00000 Atm.
 Atom     1 has atomic number 78 and mass 194.96480

 Molecular mass:   492.67688 amu.
 Principal axes and moments of inertia in atomic units:
                           1         2         3
     Eigenvalues --  2911.246635170.879005170.87900
           X            0.00000   0.91298   0.40801
           Y            0.00000  -0.40801   0.91298
           Z            1.00000   0.00000   0.00000
 This molecule is a prolate symmetric top.
 Rotational symmetry number  8.
 Warning -- assumption of classical behavior for rotation
           may cause significant error
 Rotational temperatures (Kelvin)      0.02975     0.01675     0.01675
 Rotational constants (GHZ):           0.61992     0.34902     0.34902
 Zero-point vibrational energy      15212.0 (Joules/Mol)
                                    3.63575 (Kcal/Mol)
 Warning -- explicit consideration of  15 degrees of freedom as
           vibrations may cause significant error
 Vibrational temperatures:     95.06   127.99   127.99   132.11   132.11
          (Kelvin)            196.38   196.38   196.75   202.72   246.76
                              305.50   399.33   432.27   433.91   433.91

 Zero-point correction=                           0.005794 (Hartree/Particle)
 Thermal correction to Energy=                    0.017954
 Thermal correction to Enthalpy=                  0.018899
 Thermal correction to Gibbs Free Energy=        -0.035030
 Sum of electronic and zero-point Energies=          -7107.664913
 Sum of electronic and thermal Energies=             -7107.652753
 Sum of electronic and thermal Enthalpies=           -7107.651809
 Sum of electronic and thermal Free Energies=        -7107.705737

                     E (Thermal)             CV                S
                      KCal/Mol        Cal/Mol-Kelvin    Cal/Mol-Kelvin
 Total                   11.267             33.848            113.502
 Electronic               0.000              0.000              0.000
 Translational            0.889              2.981             44.472
 Rotational               0.889              2.981             28.588
 Vibrational              9.489             27.886             40.442
 Vibration     1          0.597              1.970              4.267
 Vibration     2          0.602              1.957              3.683
 Vibration     3          0.602              1.957              3.683
 Vibration     4          0.602              1.955              3.621
 Vibration     5          0.602              1.955              3.621
 Vibration     6          0.614              1.917              2.852
 Vibration     7          0.614              1.917              2.852
 Vibration     8          0.614              1.917              2.849
 Vibration     9          0.615              1.912              2.792
 Vibration    10          0.626              1.878              2.419
 Vibration    11          0.643              1.822              2.024
 Vibration    12          0.679              1.715              1.549
 Vibration    13          0.693              1.673              1.414
 Vibration    14          0.694              1.671              1.408
 Vibration    15          0.694              1.671              1.408

 Optimization completed.
    -- Stationary point found.
 Normal termination of Gaussian 09 at Wed Aug 18 03:20:37 2021.
