 Gaussian 09, Revision D.01,
 Gaussian 09:  EM64L-G09RevD.01 24-Apr-2013

 ------------------------------------------------------------
 #b3lyp/gen pseudo=read opt freq=noraman scrf=(solvent=water)
 ------------------------------------------------------------

 ------------
 Estrutura 21
 ------------
 Symbolic Z-matrix:
 Charge = -2 Multiplicity = 1

 SCF Done:  E(RB3LYP) =  -9221.45255063     A.U. after   14 cycles
 SCF Done:  E(RB3LYP) =  -9221.47288947     A.U. after   10 cycles
 SCF Done:  E(RB3LYP) =  -9221.47936867     A.U. after   11 cycles
 SCF Done:  E(RB3LYP) =  -9221.47933949     A.U. after    9 cycles
 SCF Done:  E(RB3LYP) =  -9221.47934550     A.U. after    9 cycles
 SCF Done:  E(RB3LYP) =  -9221.47939536     A.U. after    9 cycles
 SCF Done:  E(RB3LYP) =  -9221.47935164     A.U. after    9 cycles
 SCF Done:  E(RB3LYP) =  -9221.47936668     A.U. after    8 cycles
 SCF Done:  E(RB3LYP) =  -9221.47936263     A.U. after    8 cycles
 SCF Done:  E(RB3LYP) =  -9221.47938828     A.U. after    8 cycles
 Optimization completed.
    -- Stationary point found.
 Normal termination of Gaussian 09 at Wed Aug 18 03:23:56 2021.

 ------------------------------------------------------------------
 #N Geom=AllCheck Guess=TCheck SCRF=Check GenChk RB3LYP/ChkBas Freq
 ------------------------------------------------------------------

 Structure from the checkpoint file:  "/home/scr/diego/Gau-4018.chk"
 ------------
 Estrutura 21
 ------------
 Charge = -2 Multiplicity = 1

                         Standard orientation:
 ---------------------------------------------------------------------
 Center     Atomic      Atomic             Coordinates (Angstroms)
 Number     Number       Type             X           Y           Z
 ---------------------------------------------------------------------
      1         78           0       -0.000530    0.006436    0.355173
      2         35           0        1.599853    1.321265   -1.136238
      3         17           0       -0.347162    1.984727    1.711478
      4         17           0        1.864167   -0.640319    1.764362
      5         17           0       -1.518745   -1.236830    1.778638
      6         35           0       -1.966031    0.685767   -1.128480
      7         35           0        0.368204   -2.073628   -1.078986
 ---------------------------------------------------------------------

 SCF Done:  E(RB3LYP) =  -9221.47938828     A.U. after    1 cycles

 The electronic state is 1-A.
 Alpha  occ. eigenvalues -- -482.74965-482.74962-482.74961-101.45002-101.44993
 Alpha  occ. eigenvalues -- -101.44987 -62.43070 -62.43068 -62.43067 -56.26274
 Alpha  occ. eigenvalues --  -56.26272 -56.26271 -56.25971 -56.25971 -56.25969
 Alpha  occ. eigenvalues --  -56.25968 -56.25967 -56.25967  -9.40161  -9.40157
 Alpha  occ. eigenvalues --   -9.40150  -8.64779  -8.64777  -8.64776  -7.16972
 Alpha  occ. eigenvalues --   -7.16969  -7.16961  -7.16143  -7.16143  -7.16140
 Alpha  occ. eigenvalues --   -7.16140  -7.16133  -7.16133  -6.47970  -6.47969
 Alpha  occ. eigenvalues --   -6.47968  -6.46907  -6.46906  -6.46904  -6.46904
 Alpha  occ. eigenvalues --   -6.46903  -6.46903  -4.00713  -2.59408  -2.59407
 Alpha  occ. eigenvalues --   -2.59407  -2.59116  -2.59115  -2.59115  -2.59114
 Alpha  occ. eigenvalues --   -2.59113  -2.59112  -2.58281  -2.58280  -2.58278
 Alpha  occ. eigenvalues --   -2.58278  -2.58277  -2.58277  -2.21694  -2.21690
 Alpha  occ. eigenvalues --   -2.21676  -0.76068  -0.74542  -0.74536  -0.72340
 Alpha  occ. eigenvalues --   -0.71608  -0.71600  -0.39121  -0.39107  -0.38701
 Alpha  occ. eigenvalues --   -0.37344  -0.37325  -0.37315  -0.31390  -0.31372
 Alpha  occ. eigenvalues --   -0.31345  -0.26524  -0.26380  -0.26361  -0.26030
 Alpha  occ. eigenvalues --   -0.26015  -0.25943  -0.25253  -0.25246  -0.25242
 Alpha  occ. eigenvalues --   -0.24087  -0.24082  -0.24045
 Alpha virt. eigenvalues --   -0.11619  -0.11596   0.05667   0.05694   0.05701
 Alpha virt. eigenvalues --    0.06831   0.21782   0.21847   0.21880   0.34805
 Alpha virt. eigenvalues --    0.34810   0.35171   0.37888   0.43587   0.43610

 Mulliken charges:
               1
     1  Pt  -0.584171
     2  Br  -0.204602
     3  Cl  -0.266541
     4  Cl  -0.266658
     5  Cl  -0.267211
     6  Br  -0.205167
     7  Br  -0.205649
 Sum of Mulliken charges =  -2.00000

 Dipole moment (field-independent basis, Debye):
    X=              0.0061    Y=             -0.0615    Z=             -3.5566  Tot=              3.5571
 Quadrupole moment (field-independent basis, Debye-Ang):
   XX=           -144.6838   YY=           -144.6137   ZZ=           -145.8691
   XY=              0.0002   XZ=              0.0047   YZ=             -0.0428

  Exact polarizability: 210.763  -0.050 209.776   0.041   0.166 207.214
 Approx polarizability: 298.142  -0.118 296.513   0.113   0.254 295.175

                      1                      2                      3
                      A                      A                      A
 Frequencies --     75.0226                79.8615                89.5313
 Red. masses --     71.6698                71.2654                45.0937
 Frc consts  --      0.2377                 0.2678                 0.2130
 IR Inten    --      0.4115                 0.4114                 0.4462

                      4                      5                      6
                      A                      A                      A
 Frequencies --     95.4966               110.3362               113.3848
 Red. masses --     64.3977                38.0671                40.1913
 Frc consts  --      0.3460                 0.2730                 0.3044
 IR Inten    --      1.8842                 0.3022                 0.7978

                      7                      8                      9
                      A                      A                      A
 Frequencies --    128.0210               128.6924               135.3281
 Red. masses --     45.9792                45.7476                41.8754
 Frc consts  --      0.4440                 0.4464                 0.4518
 IR Inten    --      2.0009                 2.2322                 1.2992

                     10                     11                     12
                      A                      A                      A
 Frequencies --    195.1407               195.9765               204.0230
 Red. masses --     81.1165                80.6667                87.6909
 Frc consts  --      1.8199                 1.8254                 2.1506
 IR Inten    --      9.0548                 8.7097                13.9509

                     13                     14                     15
                      A                      A                      A
 Frequencies --    285.7737               287.7149               294.3441
 Red. masses --     41.8403                41.9619                40.4688
 Frc consts  --      2.0132                 2.0466                 2.0658
 IR Inten    --     79.5768                78.1756                73.4546

 - Thermochemistry -
 -------------------
 Temperature   298.150 Kelvin.  Pressure   1.00000 Atm.
 Atom     1 has atomic number 78 and mass 194.96480

 Molecular mass:   536.62637 amu.
 Principal axes and moments of inertia in atomic units:
                           1         2         3
     Eigenvalues --  4857.947704873.352555156.41501
           X            0.99999  -0.00329  -0.00021
           Y            0.00329   0.99999   0.00236
           Z            0.00021  -0.00236   1.00000
 This molecule is an asymmetric top.
 Rotational symmetry number  1.
 Warning -- assumption of classical behavior for rotation
           may cause significant error
 Rotational temperatures (Kelvin)      0.01783     0.01777     0.01680
 Rotational constants (GHZ):           0.37150     0.37033     0.35000
 Zero-point vibrational energy      14466.7 (Joules/Mol)
                                    3.45763 (Kcal/Mol)
 Warning -- explicit consideration of  15 degrees of freedom as
           vibrations may cause significant error
 Vibrational temperatures:    107.94   114.90   128.82   137.40   158.75
          (Kelvin)            163.14   184.19   185.16   194.71   280.76
                              281.97   293.54   411.16   413.96   423.49

 Zero-point correction=                           0.005510 (Hartree/Particle)
 Thermal correction to Energy=                    0.017846
 Thermal correction to Enthalpy=                  0.018791
 Thermal correction to Gibbs Free Energy=        -0.037837
 Sum of electronic and zero-point Energies=          -9221.473878
 Sum of electronic and thermal Energies=             -9221.461542
 Sum of electronic and thermal Enthalpies=           -9221.460598
 Sum of electronic and thermal Free Energies=        -9221.517225

                     E (Thermal)             CV                S
                      KCal/Mol        Cal/Mol-Kelvin    Cal/Mol-Kelvin
 Total                   11.199             34.053            119.183
 Electronic               0.000              0.000              0.000
 Translational            0.889              2.981             44.726
 Rotational               0.889              2.981             33.168
 Vibrational              9.421             28.092             41.290
 Vibration     1          0.599              1.966              4.017
 Vibration     2          0.600              1.963              3.894
 Vibration     3          0.602              1.957              3.670
 Vibration     4          0.603              1.952              3.544
 Vibration     5          0.606              1.941              3.263
 Vibration     6          0.607              1.938              3.210
 Vibration     7          0.611              1.925              2.976
 Vibration     8          0.611              1.925              2.965
 Vibration     9          0.613              1.918              2.869
 Vibration    10          0.636              1.847              2.178
 Vibration    11          0.636              1.845              2.171
 Vibration    12          0.640              1.834              2.097
 Vibration    13          0.684              1.700              1.499
 Vibration    14          0.685              1.697              1.487
 Vibration    15          0.689              1.684              1.449

 Normal termination of Gaussian 09 at Wed Aug 18 03:25:14 2021.
