 Gaussian 09, Revision D.01,
 Gaussian 09:  EM64L-G09RevD.01 24-Apr-2013

 ------------------------------------------------------------
 #b3lyp/gen pseudo=read opt freq=noraman scrf=(solvent=water)
 ------------------------------------------------------------

 ------------
 Estrutura 22
 ------------
 Symbolic Z-matrix:
 Charge = -2 Multiplicity = 1

 SCF Done:  E(RB3LYP) =  -9221.45286979     A.U. after   13 cycles
 SCF Done:  E(RB3LYP) =  -9221.47295748     A.U. after   10 cycles
 SCF Done:  E(RB3LYP) =  -9221.47920522     A.U. after   10 cycles
 SCF Done:  E(RB3LYP) =  -9221.47930600     A.U. after    9 cycles
 SCF Done:  E(RB3LYP) =  -9221.47930793     A.U. after    7 cycles
 SCF Done:  E(RB3LYP) =  -9221.47930859     A.U. after    7 cycles
 Optimization completed.
    -- Stationary point found.
 Normal termination of Gaussian 09 at Wed Aug 18 03:26:34 2021.

 ------------------------------------------------------------------
 #N Geom=AllCheck Guess=TCheck SCRF=Check GenChk RB3LYP/ChkBas Freq
 ------------------------------------------------------------------

 Structure from the checkpoint file:  "/home/scr/diego/Gau-4989.chk"
 ------------
 Estrutura 22
 ------------
 Charge = -2 Multiplicity = 1

                         Standard orientation:
 ---------------------------------------------------------------------
 Center     Atomic      Atomic             Coordinates (Angstroms)
 Number     Number       Type             X           Y           Z
 ---------------------------------------------------------------------
      1         78           0        0.000000    0.000000    0.204865
      2         35           0        0.000000    2.567629    0.206856
      3         17           0       -2.412943    0.000000    0.207508
      4         17           0        0.000000    0.000000    2.629389
      5         35           0        0.000000    0.000000   -2.348980
      6         17           0        2.412943    0.000000    0.207508
      7         35           0        0.000000   -2.567629    0.206856
 ---------------------------------------------------------------------

 SCF Done:  E(RB3LYP) =  -9221.47930859     A.U. after    1 cycles

 The electronic state is 1-A1.
 Alpha  occ. eigenvalues -- -482.74944-482.74825-482.74824-101.45155-101.45155
 Alpha  occ. eigenvalues -- -101.44978 -62.43050 -62.42930 -62.42929 -56.26254
 Alpha  occ. eigenvalues --  -56.26132 -56.26131 -56.25950 -56.25950 -56.25831
 Alpha  occ. eigenvalues --  -56.25831 -56.25831 -56.25831  -9.40320  -9.40317
 Alpha  occ. eigenvalues --   -9.40141  -8.64759  -8.64637  -8.64635  -7.17136
 Alpha  occ. eigenvalues --   -7.17135  -7.16952  -7.16297  -7.16297  -7.16297
 Alpha  occ. eigenvalues --   -7.16296  -7.16123  -7.16122  -6.47951  -6.47819
 Alpha  occ. eigenvalues --   -6.47819  -6.46887  -6.46886  -6.46767  -6.46767
 Alpha  occ. eigenvalues --   -6.46767  -6.46767  -4.00713  -2.59389  -2.59258
 Alpha  occ. eigenvalues --   -2.59258  -2.59097  -2.59096  -2.58970  -2.58969
 Alpha  occ. eigenvalues --   -2.58969  -2.58969  -2.58261  -2.58260  -2.58144
 Alpha  occ. eigenvalues --   -2.58144  -2.58144  -2.58144  -2.21814  -2.21682
 Alpha  occ. eigenvalues --   -2.21562  -0.76231  -0.74637  -0.74604  -0.72247
 Alpha  occ. eigenvalues --   -0.71519  -0.71451  -0.39677  -0.38936  -0.38213
 Alpha  occ. eigenvalues --   -0.37621  -0.37342  -0.37016  -0.31682  -0.31398
 Alpha  occ. eigenvalues --   -0.31263  -0.26748  -0.26648  -0.26415  -0.25668
 Alpha  occ. eigenvalues --   -0.25643  -0.25481  -0.25429  -0.25378  -0.25217
 Alpha  occ. eigenvalues --   -0.24487  -0.24152  -0.23752
 Alpha virt. eigenvalues --   -0.11980  -0.11249   0.05506   0.05697   0.05879
 Alpha virt. eigenvalues --    0.06925   0.21150   0.21893   0.22259   0.33984
 Alpha virt. eigenvalues --    0.34768   0.35842   0.36531   0.42809   0.47768

 Mulliken charges:
               1
     1  Pt  -0.574700
     2  Br  -0.214955
     3  Cl  -0.261878
     4  Cl  -0.266493
     5  Br  -0.205142
     6  Cl  -0.261878
     7  Br  -0.214955
 Sum of Mulliken charges =  -2.00000

 Dipole moment (field-independent basis, Debye):
    X=              0.0000    Y=              0.0000    Z=             -2.0604  Tot=              2.0604
 Quadrupole moment (field-independent basis, Debye-Ang):
   XX=           -144.2709   YY=           -145.1692   ZZ=           -145.0601
   XY=              0.0000   XZ=              0.0000   YZ=              0.0000

  Exact polarizability: 180.530   0.000 245.390   0.000   0.000 209.337
 Approx polarizability: 259.911   0.000 342.574   0.000   0.000 296.784

                      1                      2                      3
                     B1                     B2                     A1
 Frequencies --     53.1630                72.1580                77.0401
 Red. masses --     60.5649                58.2376                72.0433
 Frc consts  --      0.1009                 0.1787                 0.2519
 IR Inten    --      0.0460                 1.1956                 1.6695

                      4                      5                      6
                     B2                     A2                     B1
 Frequencies --     84.2481               103.3652               108.5574
 Red. masses --     43.8577                41.4634                62.9657
 Frc consts  --      0.1834                 0.2610                 0.4372
 IR Inten    --      0.1436                 0.0000                 2.3603

                      7                      8                      9
                     A1                     B2                     B1
 Frequencies --    134.9140               135.7378               138.5341
 Red. masses --     40.9500                42.8726                36.9911
 Frc consts  --      0.4392                 0.4654                 0.4183
 IR Inten    --      2.0738                 5.3252                 0.1664

                     10                     11                     12
                     A1                     A1                     B2
 Frequencies --    169.0479               196.6817               210.2762
 Red. masses --     77.2183                82.2138               109.9533
 Frc consts  --      1.3001                 1.8738                 2.8644
 IR Inten    --      0.0616                 9.5070                58.3107

                     13                     14                     15
                     A1                     A1                     B1
 Frequencies --    282.5636               297.1064               302.8521
 Red. masses --     39.2993                36.9969                46.0262
 Frc consts  --      1.8487                 1.9242                 2.4872
 IR Inten    --     46.9934                29.3522                95.7118

 - Thermochemistry -
 -------------------
 Temperature   298.150 Kelvin.  Pressure   1.00000 Atm.
 Atom     1 has atomic number 78 and mass 194.96480

 Molecular mass:   536.62637 amu.
 Principal axes and moments of inertia in atomic units:
                           1         2         3
     Eigenvalues --  3936.324405170.082216198.14673
           X            0.00000   0.00000   1.00000
           Y            1.00000   0.00000   0.00000
           Z            0.00000   1.00000   0.00000
 This molecule is an asymmetric top.
 Rotational symmetry number  2.
 Warning -- assumption of classical behavior for rotation
           may cause significant error
 Rotational temperatures (Kelvin)      0.02200     0.01675     0.01397
 Rotational constants (GHZ):           0.45848     0.34907     0.29117
 Zero-point vibrational energy      14153.3 (Joules/Mol)
                                    3.38272 (Kcal/Mol)
 Warning -- explicit consideration of  15 degrees of freedom as
           vibrations may cause significant error
 Vibrational temperatures:     76.49   103.82   110.84   121.21   148.72
          (Kelvin)            156.19   194.11   195.30   199.32   243.22
                              282.98   302.54   406.55   427.47   435.74

 Zero-point correction=                           0.005391 (Hartree/Particle)
 Thermal correction to Energy=                    0.017838
 Thermal correction to Enthalpy=                  0.018783
 Thermal correction to Gibbs Free Energy=        -0.037921
 Sum of electronic and zero-point Energies=          -9221.473918
 Sum of electronic and thermal Energies=             -9221.461470
 Sum of electronic and thermal Enthalpies=           -9221.460526
 Sum of electronic and thermal Free Energies=        -9221.517230

                     E (Thermal)             CV                S
                      KCal/Mol        Cal/Mol-Kelvin    Cal/Mol-Kelvin
 Total                   11.194             34.073            119.343
 Electronic               0.000              0.000              0.000
 Translational            0.889              2.981             44.726
 Rotational               0.889              2.981             31.823
 Vibrational              9.416             28.112             42.794
 Vibration     1          0.596              1.976              4.696
 Vibration     2          0.598              1.967              4.094
 Vibration     3          0.599              1.964              3.965
 Vibration     4          0.601              1.960              3.789
 Vibration     5          0.605              1.947              3.390
 Vibration     6          0.606              1.942              3.295
 Vibration     7          0.613              1.918              2.875
 Vibration     8          0.614              1.918              2.863
 Vibration     9          0.614              1.915              2.824
 Vibration    10          0.625              1.881              2.446
 Vibration    11          0.636              1.845              2.164
 Vibration    12          0.642              1.825              2.041
 Vibration    13          0.682              1.706              1.518
 Vibration    14          0.691              1.679              1.433
 Vibration    15          0.694              1.668              1.401

 Optimization completed.
    -- Stationary point found.
 Normal termination of Gaussian 09 at Wed Aug 18 03:27:22 2021.
