 Gaussian 09, Revision D.01,
 Gaussian 09:  EM64L-G09RevD.01 24-Apr-2013

 ------------------------------------------------------------
 #b3lyp/gen pseudo=read opt freq=noraman scrf=(solvent=water)
 ------------------------------------------------------------

 ------------
 Estrutura 23
 ------------
 Symbolic Z-matrix:
 Charge = -2 Multiplicity = 1

 SCF Done:  E(RB3LYP) =  -11335.2620091     A.U. after   13 cycles
 SCF Done:  E(RB3LYP) =  -11335.2816596     A.U. after   10 cycles
 SCF Done:  E(RB3LYP) =  -11335.2880008     A.U. after   10 cycles
 SCF Done:  E(RB3LYP) =  -11335.2880310     A.U. after    9 cycles
 SCF Done:  E(RB3LYP) =  -11335.2880325     A.U. after    7 cycles
 SCF Done:  E(RB3LYP) =  -11335.2880328     A.U. after    7 cycles
 Optimization completed.
    -- Stationary point found.
 Normal termination of Gaussian 09 at Wed Aug 18 03:28:49 2021.

 ------------------------------------------------------------------
 #N Geom=AllCheck Guess=TCheck SCRF=Check GenChk RB3LYP/ChkBas Freq
 ------------------------------------------------------------------

 Structure from the checkpoint file:  "/home/scr/diego/Gau-5653.chk"
 ------------
 Estrutura 23
 ------------
 Charge = -2 Multiplicity = 1

                         Standard orientation:
 ---------------------------------------------------------------------
 Center     Atomic      Atomic             Coordinates (Angstroms)
 Number     Number       Type             X           Y           Z
 ---------------------------------------------------------------------
      1         78           0        0.000000    0.000000    0.270135
      2         35           0        2.566440    0.000000    0.274085
      3         17           0        0.000000    1.719558    1.977389
      4         17           0        0.000000   -1.719558    1.977389
      5         35           0        0.000000    1.805192   -1.535538
      6         35           0       -2.566440    0.000000    0.274085
      7         35           0        0.000000   -1.805192   -1.535538
 ---------------------------------------------------------------------

 SCF Done:  E(RB3LYP) =  -11335.2880328     A.U. after    1 cycles

 The electronic state is 1-A1.
 Alpha  occ. eigenvalues -- -482.74972-482.74971-482.74858-482.74857-101.45029
 Alpha  occ. eigenvalues -- -101.45021 -62.43076 -62.43075 -62.42961 -62.42960
 Alpha  occ. eigenvalues --  -56.26280 -56.26279 -56.26163 -56.26162 -56.25977
 Alpha  occ. eigenvalues --  -56.25976 -56.25976 -56.25975 -56.25862 -56.25862
 Alpha  occ. eigenvalues --  -56.25862 -56.25862  -9.40184  -9.40181  -8.64784
 Alpha  occ. eigenvalues --   -8.64783  -8.64666  -8.64665  -7.16993  -7.16993
 Alpha  occ. eigenvalues --   -7.16166  -7.16166  -7.16165  -7.16165  -6.47975
 Alpha  occ. eigenvalues --   -6.47975  -6.47848  -6.47848  -6.46911  -6.46911
 Alpha  occ. eigenvalues --   -6.46911  -6.46910  -6.46797  -6.46797  -6.46797
 Alpha  occ. eigenvalues --   -6.46797  -4.00532  -2.59412  -2.59412  -2.59288
 Alpha  occ. eigenvalues --   -2.59287  -2.59122  -2.59121  -2.59120  -2.59120
 Alpha  occ. eigenvalues --   -2.58999  -2.58999  -2.58999  -2.58999  -2.58285
 Alpha  occ. eigenvalues --   -2.58285  -2.58285  -2.58285  -2.58174  -2.58174
 Alpha  occ. eigenvalues --   -2.58174  -2.58174  -2.21560  -2.21547  -2.21434
 Alpha  occ. eigenvalues --   -0.75749  -0.74570  -0.72614  -0.71607  -0.71523
 Alpha  occ. eigenvalues --   -0.71483  -0.39087  -0.38872  -0.38237  -0.37298
 Alpha  occ. eigenvalues --   -0.37010  -0.36991  -0.31247  -0.31219  -0.31074
 Alpha  occ. eigenvalues --   -0.26428  -0.26328  -0.26113  -0.25605  -0.25512
 Alpha  occ. eigenvalues --   -0.25509  -0.25243  -0.25234  -0.25189  -0.24061
 Alpha  occ. eigenvalues --   -0.23782  -0.23767
 Alpha virt. eigenvalues --   -0.11981  -0.11553   0.05533   0.05709   0.05741
 Alpha virt. eigenvalues --    0.06303   0.20602   0.21264   0.21330   0.33708
 Alpha virt. eigenvalues --    0.33897   0.34681   0.35234   0.41818   0.43139

 Mulliken charges:
               1
     1  Pt  -0.637897
     2  Br  -0.213006
     3  Cl  -0.265301
     4  Cl  -0.265301
     5  Br  -0.202745
     6  Br  -0.213006
     7  Br  -0.202745
 Sum of Mulliken charges =  -2.00000

 Dipole moment (field-independent basis, Debye):
    X=              0.0000    Y=              0.0000    Z=             -2.7022  Tot=              2.7022
 Quadrupole moment (field-independent basis, Debye-Ang):
   XX=           -151.2826   YY=           -150.7957   ZZ=           -151.4574
   XY=              0.0000   XZ=              0.0000   YZ=              0.0000

  Exact polarizability: 250.083   0.000 215.606   0.000   0.000 213.471
 Approx polarizability: 348.712   0.000 304.571   0.000   0.000 302.838

                      1                      2                      3
                     A1                     A2                     B2
 Frequencies --     76.3250                78.8267                83.4515
 Red. masses --     77.0182                75.0378                62.8544
 Frc consts  --      0.2643                 0.2747                 0.2579
 IR Inten    --      0.2713                 0.0000                 0.7204

                      4                      5                      6
                     B1                     A1                     A2
 Frequencies --     90.4600               101.1331               108.2350
 Red. masses --     71.7857                73.2551                38.3566
 Frc consts  --      0.3461                 0.4414                 0.2647
 IR Inten    --      1.4336                 2.6594                 0.0000

                      7                      8                      9
                     B2                     B1                     A1
 Frequencies --    115.3017               135.1466               138.5583
 Red. masses --     55.0523                46.1115                39.3740
 Frc consts  --      0.4312                 0.4962                 0.4454
 IR Inten    --      2.7924                 3.7744                 0.9190

                     10                     11                     12
                     A1                     B2                     A1
 Frequencies --    175.6055               194.5134               204.4790
 Red. masses --     78.3704                80.4115                87.0599
 Frc consts  --      1.4239                 1.7925                 2.1447
 IR Inten    --      0.0412                 7.8352                13.2716

                     13                     14                     15
                     B1                     B2                     A1
 Frequencies --    211.3375               287.5727               297.2415
 Red. masses --    112.5759                42.2881                40.5308
 Frc consts  --      2.9624                 2.0605                 2.1099
 IR Inten    --     58.1104                77.0064                72.5727

 - Thermochemistry -
 -------------------
 Temperature   298.150 Kelvin.  Pressure   1.00000 Atm.
 Atom     1 has atomic number 78 and mass 194.96480

 Molecular mass:   580.57585 amu.
 Principal axes and moments of inertia in atomic units:
                           1         2         3
     Eigenvalues --  4973.539946110.806896287.75972
           X            1.00000   0.00000   0.00000
           Y            0.00000   1.00000   0.00000
           Z            0.00000   0.00000   1.00000
 This molecule is an asymmetric top.
 Rotational symmetry number  2.
 Warning -- assumption of classical behavior for rotation
           may cause significant error
 Rotational temperatures (Kelvin)      0.01741     0.01417     0.01377
 Rotational constants (GHZ):           0.36287     0.29534     0.28702
 Zero-point vibrational energy      13746.2 (Joules/Mol)
                                    3.28542 (Kcal/Mol)
 Warning -- explicit consideration of  15 degrees of freedom as
           vibrations may cause significant error
 Vibrational temperatures:    109.81   113.41   120.07   130.15   145.51
          (Kelvin)            155.73   165.89   194.45   199.35   252.66
                              279.86   294.20   304.07   413.75   427.66

 Zero-point correction=                           0.005236 (Hartree/Particle)
 Thermal correction to Energy=                    0.017761
 Thermal correction to Enthalpy=                  0.018705
 Thermal correction to Gibbs Free Energy=        -0.038200
 Sum of electronic and zero-point Energies=         -11335.282797
 Sum of electronic and thermal Energies=            -11335.270272
 Sum of electronic and thermal Enthalpies=          -11335.269328
 Sum of electronic and thermal Free Energies=       -11335.326233

                     E (Thermal)             CV                S
                      KCal/Mol        Cal/Mol-Kelvin    Cal/Mol-Kelvin
 Total                   11.145             34.220            119.767
 Electronic               0.000              0.000              0.000
 Translational            0.889              2.981             44.961
 Rotational               0.889              2.981             32.235
 Vibrational              9.368             28.258             42.571
 Vibration     1          0.599              1.965              3.983
 Vibration     2          0.600              1.963              3.920
 Vibration     3          0.600              1.961              3.808
 Vibration     4          0.602              1.956              3.650
 Vibration     5          0.604              1.948              3.432
 Vibration     6          0.606              1.943              3.300
 Vibration     7          0.608              1.937              3.178
 Vibration     8          0.613              1.918              2.871
 Vibration     9          0.614              1.915              2.824
 Vibration    10          0.628              1.872              2.375
 Vibration    11          0.635              1.848              2.184
 Vibration    12          0.640              1.834              2.092
 Vibration    13          0.643              1.824              2.032
 Vibration    14          0.685              1.697              1.488
 Vibration    15          0.691              1.679              1.432

 Optimization completed.
    -- Stationary point found.
 Normal termination of Gaussian 09 at Wed Aug 18 03:29:43 2021.
