 Gaussian 09, Revision D.01,
 Gaussian 09:  EM64L-G09RevD.01 24-Apr-2013

 ------------------------------------------------------------
 #b3lyp/gen pseudo=read opt freq=noraman scrf=(solvent=water)
 ------------------------------------------------------------

 ------------
 Estrutura 24
 ------------
 Symbolic Z-matrix:
 Charge = -2 Multiplicity = 1

 SCF Done:  E(RB3LYP) =  -11335.2622897     A.U. after   11 cycles
 SCF Done:  E(RB3LYP) =  -11335.2817838     A.U. after    9 cycles
 SCF Done:  E(RB3LYP) =  -11335.2876952     A.U. after    9 cycles
 SCF Done:  E(RB3LYP) =  -11335.2878836     A.U. after    8 cycles
 SCF Done:  E(RB3LYP) =  -11335.2878872     A.U. after    7 cycles
 Optimization completed.
    -- Stationary point found.
 Normal termination of Gaussian 09 at Wed Aug 18 03:30:46 2021.

 ------------------------------------------------------------------
 #N Geom=AllCheck Guess=TCheck SCRF=Check GenChk RB3LYP/ChkBas Freq
 ------------------------------------------------------------------

 Structure from the checkpoint file:  "/home/scr/diego/Gau-6314.chk"
 ------------
 Estrutura 24
 ------------
 Charge = -2 Multiplicity = 1

                         Standard orientation:
 ---------------------------------------------------------------------
 Center     Atomic      Atomic             Coordinates (Angstroms)
 Number     Number       Type             X           Y           Z
 ---------------------------------------------------------------------
      1         78           0        0.000000    0.000000    0.000000
      2         35           0        0.000000    2.566140    0.000000
      3         35           0       -2.566140    0.000000    0.000000
      4         35           0        0.000000   -2.566140    0.000000
      5         35           0        2.566140    0.000000    0.000000
      6         17           0        0.000000    0.000000    2.413691
      7         17           0        0.000000    0.000000   -2.413691
 ---------------------------------------------------------------------

 SCF Done:  E(RB3LYP) =  -11335.2878872     A.U. after    1 cycles

 The electronic state is 1-A1G.
 Alpha  occ. eigenvalues -- -482.74825-482.74824-482.74824-482.74822-101.45187
 Alpha  occ. eigenvalues -- -101.45187 -62.42928 -62.42928 -62.42928 -62.42926
 Alpha  occ. eigenvalues --  -56.26130 -56.26130 -56.26130 -56.26129 -56.25831
 Alpha  occ. eigenvalues --  -56.25830 -56.25829 -56.25829 -56.25829 -56.25829
 Alpha  occ. eigenvalues --  -56.25829 -56.25827  -9.40345  -9.40342  -8.64634
 Alpha  occ. eigenvalues --   -8.64634  -8.64632  -8.64632  -7.17161  -7.17160
 Alpha  occ. eigenvalues --   -7.16323  -7.16323  -7.16322  -7.16322  -6.47816
 Alpha  occ. eigenvalues --   -6.47816  -6.47816  -6.47816  -6.46765  -6.46765
 Alpha  occ. eigenvalues --   -6.46765  -6.46765  -6.46765  -6.46764  -6.46764
 Alpha  occ. eigenvalues --   -6.46764  -4.00524  -2.59256  -2.59256  -2.59255
 Alpha  occ. eigenvalues --   -2.59255  -2.58967  -2.58967  -2.58967  -2.58967
 Alpha  occ. eigenvalues --   -2.58967  -2.58966  -2.58966  -2.58966  -2.58142
 Alpha  occ. eigenvalues --   -2.58142  -2.58142  -2.58142  -2.58141  -2.58141
 Alpha  occ. eigenvalues --   -2.58141  -2.58141  -2.21674  -2.21421  -2.21421
 Alpha  occ. eigenvalues --   -0.75970  -0.74655  -0.72539  -0.71452  -0.71452
 Alpha  occ. eigenvalues --   -0.71416  -0.39616  -0.38265  -0.38183  -0.37299
 Alpha  occ. eigenvalues --   -0.37299  -0.36662  -0.31571  -0.31108  -0.31108
 Alpha  occ. eigenvalues --   -0.26496  -0.26496  -0.25844  -0.25496  -0.25410
 Alpha  occ. eigenvalues --   -0.25410  -0.25219  -0.25172  -0.25172  -0.24146
 Alpha  occ. eigenvalues --   -0.24146  -0.23451
 Alpha virt. eigenvalues --   -0.12140  -0.11396   0.05552   0.05552   0.05924
 Alpha virt. eigenvalues --    0.06394   0.20673   0.20673   0.21680   0.33005
 Alpha virt. eigenvalues --    0.34563   0.34601   0.34601   0.40472   0.47277

 Mulliken charges:
               1
     1  Pt  -0.627699
     2  Br  -0.212795
     3  Br  -0.212795
     4  Br  -0.212795
     5  Br  -0.212795
     6  Cl  -0.260561
     7  Cl  -0.260561
 Sum of Mulliken charges =  -2.00000

 Dipole moment (field-independent basis, Debye):
    X=              0.0000    Y=              0.0000    Z=              0.0000  Tot=              0.0000
 Quadrupole moment (field-independent basis, Debye-Ang):
   XX=           -151.2883   YY=           -151.2883   ZZ=           -150.4416
   XY=              0.0000   XZ=              0.0000   YZ=              0.0000

  Exact polarizability: 249.883   0.000 249.883   0.000   0.000 186.356
 Approx polarizability: 348.608   0.000 348.608   0.000   0.000 267.888

 ******    1 imaginary frequencies (negative Signs) ******

                      1                      2                      3
                     B2U                    EU                     EU
 Frequencies --    -36.0996                64.2699                64.2699
 Red. masses --     78.9183                75.8922                75.8922
 Frc consts  --      0.0606                 0.1847                 0.1847
 IR Inten    --      0.0000                 3.1111                 3.1111

                      4                      5                      6
                     B2G                    A2U                    EG
 Frequencies --     74.0353               108.6096               112.1821
 Red. masses --     78.9183                80.5628                41.4732
 Frc consts  --      0.2549                 0.5599                 0.3075
 IR Inten    --      0.0000                 2.9671                 0.0000

                      7                      8                      9
                     EG                     EU                     EU
 Frequencies --    112.1821               137.6377               137.6377
 Red. masses --     41.4732                40.0457                40.0457
 Frc consts  --      0.3075                 0.4470                 0.4470
 IR Inten    --      0.0000                 4.2111                 4.2111

                     10                     11                     12
                     B1G                    A1G                    EU
 Frequencies --    158.9019               177.7961               209.1963
 Red. masses --     78.9183                78.1899               112.8206
 Frc consts  --      1.1740                 1.4563                 2.9090
 IR Inten    --      0.0000                 0.0000                55.4864

                     13                     14                     15
                     EU                     A1G                    A2U
 Frequencies --    209.1963               292.4815               303.3505
 Red. masses --    112.8206                35.1138                45.6045
 Frc consts  --      2.9090                 1.7698                 2.4726
 IR Inten    --     55.4864                 0.0000                93.4730

 - Thermochemistry -
 -------------------
 Temperature   298.150 Kelvin.  Pressure   1.00000 Atm.
 Atom     1 has atomic number 78 and mass 194.96480

 Molecular mass:   580.57585 amu.
 Principal axes and moments of inertia in atomic units:
                           1         2         3
     Eigenvalues --  5166.675825166.675827423.28787
           X            0.90270   0.43028   0.00000
           Y           -0.43028   0.90270   0.00000
           Z            0.00000   0.00000   1.00000
 This molecule is an oblate symmetric top.
 Rotational symmetry number  8.
 Warning -- assumption of classical behavior for rotation
           may cause significant error
 Rotational temperatures (Kelvin)      0.01676     0.01676     0.01167
 Rotational constants (GHZ):           0.34930     0.34930     0.24312
    1 imaginary frequencies ignored.
 Zero-point vibrational energy      12930.1 (Joules/Mol)
                                    3.09037 (Kcal/Mol)
 Warning -- explicit consideration of  14 degrees of freedom as
           vibrations may cause significant error
 Vibrational temperatures:     92.47    92.47   106.52   156.26   161.40
          (Kelvin)            161.40   198.03   198.03   228.62   255.81
                              300.99   300.99   420.82   436.45

 Zero-point correction=                           0.004925 (Hartree/Particle)
 Thermal correction to Energy=                    0.016788
 Thermal correction to Enthalpy=                  0.017732
 Thermal correction to Gibbs Free Energy=        -0.036654
 Sum of electronic and zero-point Energies=         -11335.282962
 Sum of electronic and thermal Energies=            -11335.271099
 Sum of electronic and thermal Enthalpies=          -11335.270155
 Sum of electronic and thermal Free Energies=       -11335.324541

                     E (Thermal)             CV                S
                      KCal/Mol        Cal/Mol-Kelvin    Cal/Mol-Kelvin
 Total                   10.535             32.294            114.465
 Electronic               0.000              0.000              0.000
 Translational            0.889              2.981             44.961
 Rotational               0.889              2.981             29.517
 Vibrational              8.757             26.332             39.988
 Vibration     1          0.597              1.971              4.322
 Vibration     2          0.597              1.971              4.322
 Vibration     3          0.599              1.966              4.043
 Vibration     4          0.606              1.942              3.294
 Vibration     5          0.607              1.939              3.231
 Vibration     6          0.607              1.939              3.231
 Vibration     7          0.614              1.916              2.836
 Vibration     8          0.614              1.916              2.836
 Vibration     9          0.621              1.893              2.563
 Vibration    10          0.628              1.870              2.351
 Vibration    11          0.642              1.827              2.051
 Vibration    12          0.642              1.827              2.051
 Vibration    13          0.688              1.688              1.460
 Vibration    14          0.695              1.667              1.398

 Normal termination of Gaussian 09 at Wed Aug 18 03:31:28 2021.
