 Gaussian 09, Revision A.02,
 Gaussian 09:  EM64L-G09RevA.02 11-Jun-2009

 ------------------------------------------------------------
 #b3lyp/gen pseudo=read opt freq=noraman scrf=(solvent=water)
 ------------------------------------------------------------

 ------------
 Estrutura 25
 ------------
 Symbolic Z-matrix:
 Charge = -2 Multiplicity = 1

 SCF Done:  E(RB3LYP) =  -2624.83642823     A.U. after   20 cycles
 SCF Done:  E(RB3LYP) =  -2624.90660063     A.U. after   15 cycles
 SCF Done:  E(RB3LYP) =  -2624.91804044     A.U. after   19 cycles
 SCF Done:  E(RB3LYP) =  -2624.91419234     A.U. after   19 cycles
 SCF Done:  E(RB3LYP) =  -2624.92095746     A.U. after   19 cycles
 SCF Done:  E(RB3LYP) =  -2624.92217584     A.U. after   14 cycles
 SCF Done:  E(RB3LYP) =  -2624.92294472     A.U. after   14 cycles
 SCF Done:  E(RB3LYP) =  -2624.92305490     A.U. after   18 cycles
 SCF Done:  E(RB3LYP) =  -2624.92400652     A.U. after   15 cycles
 SCF Done:  E(RB3LYP) =  -2624.92424218     A.U. after   13 cycles
 SCF Done:  E(RB3LYP) =  -2624.92407474     A.U. after   13 cycles
 SCF Done:  E(RB3LYP) =  -2624.92420112     A.U. after   13 cycles
 SCF Done:  E(RB3LYP) =  -2624.92422938     A.U. after   11 cycles
 SCF Done:  E(RB3LYP) =  -2624.92430174     A.U. after   16 cycles
 SCF Done:  E(RB3LYP) =  -2624.92428695     A.U. after   16 cycles
 SCF Done:  E(RB3LYP) =  -2624.92430240     A.U. after   11 cycles
 Optimization completed.
    -- Stationary point found.
 Normal termination of Gaussian 09 at Wed Dec  1 04:58:18 2021.

 ------------------------------------------------------------------
 #N Geom=AllCheck Guess=TCheck SCRF=Check GenChk RB3LYP/ChkBas Freq
 ------------------------------------------------------------------

 Estrutura 25
 ------------
 Redundant internal coordinates taken from checkpoint file:
 /scr/guest/Gau-29960.chk
 Charge = -2 Multiplicity = 1

                         Standard orientation:
 ---------------------------------------------------------------------
 Center     Atomic      Atomic             Coordinates (Angstroms)
 Number     Number       Type             X           Y           Z
 ---------------------------------------------------------------------
      1         78           0       -0.085578   -0.000115    0.000257
      2          7           0        2.014321    0.001640   -0.005007
      3          8           0        2.584869   -1.070581   -0.025923
      4          8           0        2.582621    1.075045    0.013161
      5         17           0       -0.071660    1.611984    1.798190
      6         17           0       -0.077716   -1.772514    1.641241
      7         17           0       -0.079339   -1.612534   -1.797422
      8         17           0       -0.090018    1.772250   -1.640649
      9         17           0       -2.549799   -0.001436    0.005527
 ---------------------------------------------------------------------

 SCF Done:  E(RB3LYP) =  -2624.92430240     A.U. after    1 cycles

 The electronic state is 1-A.
 Alpha  occ. eigenvalues -- -101.45147-101.45147-101.45114-101.45111-101.43304
 Alpha  occ. eigenvalues --  -19.15903 -19.15900 -14.53185  -9.40333  -9.40331
 Alpha  occ. eigenvalues --   -9.40301  -9.40298  -9.38497  -7.17148  -7.17146
 Alpha  occ. eigenvalues --   -7.17116  -7.17114  -7.16314  -7.16314  -7.16305
 Alpha  occ. eigenvalues --   -7.16304  -7.16282  -7.16282  -7.16272  -7.16271
 Alpha  occ. eigenvalues --   -7.15217  -7.14527  -7.14526  -4.01407  -2.22442
 Alpha  occ. eigenvalues --   -2.22382  -2.22363  -1.20466  -1.03521  -0.76609
 Alpha  occ. eigenvalues --   -0.74859  -0.74740  -0.74623  -0.73339  -0.63067
 Alpha  occ. eigenvalues --   -0.53174  -0.51756  -0.50063  -0.40139  -0.39700
 Alpha  occ. eigenvalues --   -0.38241  -0.37424  -0.36735  -0.35279  -0.32001
 Alpha  occ. eigenvalues --   -0.31655  -0.31164  -0.28614  -0.28284  -0.27043
 Alpha  occ. eigenvalues --   -0.26787  -0.26753  -0.25584  -0.25581  -0.25510
 Alpha  occ. eigenvalues --   -0.25155  -0.25138  -0.25098  -0.24957
 Alpha virt. eigenvalues --   -0.11297  -0.09648  -0.04576   0.05534   0.05900
 Alpha virt. eigenvalues --    0.05969   0.09614   0.23852   0.24399   0.25416
 Alpha virt. eigenvalues --    0.30836   0.37863   0.38218   0.38797   0.42045

 Mulliken atomic charges:
              1
     1  Pt  -0.266008
     2  N    0.138215
     3  O   -0.255133
     4  O   -0.255002
     5  Cl  -0.258828
     6  Cl  -0.258399
     7  Cl  -0.258817
     8  Cl  -0.258363
     9  Cl  -0.327665
 Sum of Mulliken atomic charges =  -2.00000

 Dipole moment (field-independent basis, Debye):
    X=              1.4508    Y=              0.0013    Z=             -0.0039  Tot=              1.4508
 Quadrupole moment (field-independent basis, Debye-Ang):
   XX=           -135.0472   YY=           -131.9560   ZZ=           -127.4849
   XY=              0.0010   XZ=              0.0105   YZ=             -0.0575

  Exact polarizability: 175.874  -0.024 177.419   0.034   0.040 164.166
 Approx polarizability: 256.583  -0.053 271.659   0.056   0.236 235.878

                     1                      2                      3
                     A                      A                      A
 Frequencies --    55.5741               111.4090               117.7860
 Red. masses --    17.5469                23.9987                26.3181
 Frc consts  --     0.0319                 0.1755                 0.2151
 IR Inten    --     0.0001                 0.0704                 0.2240

                     4                      5                      6
                     A                      A                      A
 Frequencies --   125.0414               125.3067               131.7249
 Red. masses --    29.6481                31.5624                26.7996
 Frc consts  --     0.2731                 0.2920                 0.2740
 IR Inten    --     0.2996                 0.0271                 0.2216

                     7                      8                      9
                     A                      A                      A
 Frequencies --   133.2447               146.9000               153.8357
 Red. masses --    33.2469                40.0374                36.9763
 Frc consts  --     0.3478                 0.5090                 0.5156
 IR Inten    --     0.0029                 0.0625                 0.4587

                    10                     11                     12
                     A                      A                      A
 Frequencies --   154.5617               259.7316               272.5629
 Red. masses --    40.1849                21.1771                30.5812
 Frc consts  --     0.5656                 0.8417                 1.3386
 IR Inten    --     0.1563                 7.4353               106.6809

                    13                     14                     15
                     A                      A                      A
 Frequencies --   287.2809               295.4438               301.0644
 Red. masses --    34.9459                27.5419                33.8981
 Frc consts  --     1.6993                 1.4164                 1.8103
 IR Inten    --     0.1611                74.6508                 2.1182

                    16                     17                     18
                     A                      A                      A
 Frequencies --   306.7801               339.6364               613.1177
 Red. masses --    45.4839                21.1083                14.4485
 Frc consts  --     2.5221                 1.4346                 3.2001
 IR Inten    --   112.9013                23.8351                16.5874

                    19                     20                     21
                     A                      A                      A
 Frequencies --   835.2889              1406.7706              1638.6151
 Red. masses --    15.2976                15.1248                14.6408
 Frc consts  --     6.2885                17.6354                23.1616
 IR Inten    --   235.5902               825.7770               541.9356

 - Thermochemistry -
 -------------------
 Temperature   298.150 Kelvin.  Pressure   1.00000 Atm.
 Atom     1 has atomic number 78 and mass 194.96480

 Molecular mass:   415.80197 amu.
 Principal axes and moments of inertia in atomic units:
                           1         2         3
     Eigenvalues --  3045.022543265.153583350.60384
           X            1.00000   0.00009  -0.00022
           Y           -0.00009   1.00000   0.00081
           Z            0.00022  -0.00081   1.00000
 This molecule is an asymmetric top.
 Rotational symmetry number  1.
 Warning -- assumption of classical behavior for rotation
           may cause significant error
 Rotational temperatures (Kelvin)      0.02844     0.02653     0.02585
 Rotational constants (GHZ):           0.59269     0.55273     0.53863
 Zero-point vibrational energy      46724.2 (Joules/Mol)
                                   11.16735 (Kcal/Mol)
 Warning -- explicit consideration of  18 degrees of freedom as
           vibrations may cause significant error
 Vibrational temperatures:     79.96   160.29   169.47   179.91   180.29
          (Kelvin)            189.52   191.71   211.36   221.34   222.38
                              373.70   392.16   413.33   425.08   433.16
                              441.39   488.66   882.14  1201.79  2024.03
                             2357.60

 Zero-point correction=                           0.017796 (Hartree/Particle)
 Thermal correction to Energy=                    0.030737
 Thermal correction to Enthalpy=                  0.031681
 Thermal correction to Gibbs Free Energy=        -0.024125
 Sum of electronic and zero-point Energies=          -2624.906506
 Sum of electronic and thermal Energies=             -2624.893566
 Sum of electronic and thermal Enthalpies=           -2624.892621
 Sum of electronic and thermal Free Energies=        -2624.948427

                     E (Thermal)             CV                S
                      KCal/Mol        Cal/Mol-Kelvin    Cal/Mol-Kelvin
 Total                   19.288             38.737            117.453
 Electronic               0.000              0.000              0.000
 Translational            0.889              2.981             43.966
 Rotational               0.889              2.981             31.877
 Vibrational             17.510             32.776             41.610
 Vibration     1          0.596              1.975              4.608
 Vibration     2          0.607              1.940              3.244
 Vibration     3          0.608              1.935              3.136
 Vibration     4          0.610              1.928              3.021
 Vibration     5          0.610              1.928              3.017
 Vibration     6          0.612              1.922              2.921
 Vibration     7          0.613              1.920              2.899
 Vibration     8          0.617              1.906              2.712
 Vibration     9          0.619              1.898              2.624
 Vibration    10          0.620              1.898              2.615
 Vibration    11          0.668              1.746              1.664
 Vibration    12          0.676              1.724              1.580
 Vibration    13          0.684              1.697              1.490
 Vibration    14          0.690              1.682              1.443
 Vibration    15          0.693              1.672              1.411
 Vibration    16          0.697              1.661              1.380
 Vibration    17          0.720              1.596              1.214
 Vibration    18          0.972              1.004              0.428

 Normal termination of Gaussian 09 at Wed Dec  1 05:00:08 2021.
