 Gaussian 09, Revision D.01,
 Gaussian 09:  EM64L-G09RevD.01 24-Apr-2013

 ------------------------------------------------------------
 #b3lyp/gen pseudo=read opt freq=noraman scrf=(solvent=water)
 ------------------------------------------------------------

 ------------
 Estrutura 27
 ------------
 Symbolic Z-matrix:
 Charge = -2 Multiplicity = 1

 SCF Done:  E(RB3LYP) =  -4738.61380321     A.U. after   20 cycles
 SCF Done:  E(RB3LYP) =  -4738.66877726     A.U. after   14 cycles
 SCF Done:  E(RB3LYP) =  -4738.70684364     A.U. after   16 cycles
 SCF Done:  E(RB3LYP) =  -4738.72801724     A.U. after   15 cycles
 SCF Done:  E(RB3LYP) =  -4738.73165738     A.U. after   14 cycles
 SCF Done:  E(RB3LYP) =  -4738.73055334     A.U. after   14 cycles
 SCF Done:  E(RB3LYP) =  -4738.73199623     A.U. after   10 cycles
 SCF Done:  E(RB3LYP) =  -4738.73249201     A.U. after   13 cycles
 SCF Done:  E(RB3LYP) =  -4738.73261110     A.U. after   11 cycles
 SCF Done:  E(RB3LYP) =  -4738.73261403     A.U. after   11 cycles
 SCF Done:  E(RB3LYP) =  -4738.73260235     A.U. after   11 cycles
 SCF Done:  E(RB3LYP) =  -4738.73260119     A.U. after   10 cycles
 SCF Done:  E(RB3LYP) =  -4738.73261082     A.U. after   10 cycles
 Optimization completed.
    -- Stationary point found.
 Normal termination of Gaussian 09 at Wed Aug 18 03:50:47 2021.

 ------------------------------------------------------------------
 #N Geom=AllCheck Guess=TCheck SCRF=Check GenChk RB3LYP/ChkBas Freq
 ------------------------------------------------------------------

 Structure from the checkpoint file:  "/home/scr/diego/Gau-10587.chk"
 ------------
 Estrutura 27
 ------------
 Charge = -2 Multiplicity = 1

                         Standard orientation:
 ---------------------------------------------------------------------
 Center     Atomic      Atomic             Coordinates (Angstroms)
 Number     Number       Type             X           Y           Z
 ---------------------------------------------------------------------
      1         78           0       -0.230907   -0.090337    0.013431
      2         17           0       -2.650364   -0.187351    0.147560
      3         17           0       -0.108040   -2.549402    0.078055
      4         35           0        2.314637    0.041668   -0.127179
      5          7           0       -0.334025    2.005934   -0.029618
      6          8           0        0.369355    2.627571    0.741765
      7          8           0       -1.097926    2.522304   -0.820458
      8         17           0       -0.330727   -0.159683   -2.399415
      9         17           0       -0.136449   -0.024308    2.423241
 ---------------------------------------------------------------------

 SCF Done:  E(RB3LYP) =  -4738.73261082     A.U. after    1 cycles

 The electronic state is 1-A.
 Alpha  occ. eigenvalues -- -482.74985-101.45111-101.45093-101.45031-101.43346
 Alpha  occ. eigenvalues --  -62.43099 -56.26301 -56.26000 -56.25996 -19.15882
 Alpha  occ. eigenvalues --  -19.15866 -14.53172  -9.40296  -9.40275  -9.40210
 Alpha  occ. eigenvalues --   -9.38535  -8.64813  -7.17113  -7.17090  -7.17019
 Alpha  occ. eigenvalues --   -7.16278  -7.16267  -7.16258  -7.16247  -7.16197
 Alpha  occ. eigenvalues --   -7.16188  -7.15256  -7.14566  -7.14564  -6.48003
 Alpha  occ. eigenvalues --   -6.46948  -6.46933  -4.01233  -2.59443  -2.59156
 Alpha  occ. eigenvalues --   -2.59144  -2.58316  -2.58316  -2.22284  -2.22239
 Alpha  occ. eigenvalues --   -2.22159  -1.20439  -1.03488  -0.76259  -0.74705
 Alpha  occ. eigenvalues --   -0.74648  -0.73416  -0.71915  -0.63061  -0.53155
 Alpha  occ. eigenvalues --   -0.51738  -0.50041  -0.39934  -0.39257  -0.37940
 Alpha  occ. eigenvalues --   -0.37305  -0.36494  -0.35271  -0.31810  -0.31281
 Alpha  occ. eigenvalues --   -0.31128  -0.28330  -0.28165  -0.26675  -0.26483
 Alpha  occ. eigenvalues --   -0.26411  -0.25546  -0.25527  -0.25383  -0.25144
 Alpha  occ. eigenvalues --   -0.24987  -0.24559  -0.24508
 Alpha virt. eigenvalues --   -0.11574  -0.09712  -0.04575   0.05439   0.05885
 Alpha virt. eigenvalues --    0.05971   0.09153   0.23023   0.23421   0.24337
 Alpha virt. eigenvalues --    0.30629   0.36738   0.36887   0.38004   0.41470

 Mulliken charges:
               1
     1  Pt  -0.323923
     2  Cl  -0.263084
     3  Cl  -0.325508
     4  Br  -0.201649
     5  N    0.137715
     6  O   -0.254873
     7  O   -0.255014
     8  Cl  -0.257618
     9  Cl  -0.256047
 Sum of Mulliken charges =  -2.00000

 Dipole moment (field-independent basis, Debye):
    X=              2.2780    Y=              1.4550    Z=             -0.1373  Tot=              2.7065
 Quadrupole moment (field-independent basis, Debye-Ang):
   XX=           -136.5286   YY=           -141.2199   ZZ=           -136.0679
   XY=             -0.1183   XZ=             -2.1801   YZ=             -0.0188

  Exact polarizability: 203.699  -0.121 181.188   5.152   0.347 176.990
 Approx polarizability: 294.625   0.372 264.155  16.255   1.213 263.116

                      1                      2                      3
                      A                      A                      A
 Frequencies --     60.3821                95.0301               105.3471
 Red. masses --     20.2812                37.5325                28.3705
 Frc consts  --      0.0436                 0.1997                 0.1855
 IR Inten    --      0.0611                 0.7390                 0.4293

                      4                      5                      6
                      A                      A                      A
 Frequencies --    115.2693               119.5027               127.6624
 Red. masses --     29.3813                33.1594                30.6448
 Frc consts  --      0.2300                 0.2790                 0.2943
 IR Inten    --      0.3252                 0.1312                 0.0723

                      7                      8                      9
                      A                      A                      A
 Frequencies --    133.0886               142.2872               146.0606
 Red. masses --     23.9115                39.0719                32.6378
 Frc consts  --      0.2495                 0.4661                 0.4102
 IR Inten    --      0.0533                 0.3441                 0.7373

                     10                     11                     12
                      A                      A                      A
 Frequencies --    150.7813               200.3742               262.3024
 Red. masses --     38.3686                73.0612                20.8638
 Frc consts  --      0.5139                 1.7283                 0.8458
 IR Inten    --      0.1592                12.2659                 7.4814

                     13                     14                     15
                      A                      A                      A
 Frequencies --    274.2170               286.6730               294.9422
 Red. masses --     31.5561                34.0941                31.6873
 Frc consts  --      1.3980                 1.6508                 1.6241
 IR Inten    --    106.8341                51.1716                29.2910

                     16                     17                     18
                      A                      A                      A
 Frequencies --    301.9940               339.1515               611.7479
 Red. masses --     37.0307                20.0998                14.4488
 Frc consts  --      1.9898                 1.3622                 3.1859
 IR Inten    --     81.2326                17.4342                17.2403

                     19                     20                     21
                      A                      A                      A
 Frequencies --    836.6936              1406.7207              1637.9751
 Red. masses --     15.2985                15.1236                14.6417
 Frc consts  --      6.3100                17.6328                23.1450
 IR Inten    --    234.3173               816.0142               536.1843

 - Thermochemistry -
 -------------------
 Temperature   298.150 Kelvin.  Pressure   1.00000 Atm.
 Atom     1 has atomic number 78 and mass 194.96480

 Molecular mass:   459.75145 amu.
 Principal axes and moments of inertia in atomic units:
                           1         2         3
     Eigenvalues --  3314.213664053.703614307.49476
           X            0.99988  -0.01252   0.00965
           Y            0.01253   0.99992  -0.00029
           Z           -0.00965   0.00041   0.99995
 This molecule is an asymmetric top.
 Rotational symmetry number  1.
 Warning -- assumption of classical behavior for rotation
           may cause significant error
 Rotational temperatures (Kelvin)      0.02613     0.02137     0.02011
 Rotational constants (GHZ):           0.54455     0.44521     0.41898
 Zero-point vibrational energy      45746.4 (Joules/Mol)
                                   10.93366 (Kcal/Mol)
 Warning -- explicit consideration of  18 degrees of freedom as
           vibrations may cause significant error
 Vibrational temperatures:     86.88   136.73   151.57   165.85   171.94
          (Kelvin)            183.68   191.48   204.72   210.15   216.94
                              288.29   377.39   394.54   412.46   424.36
                              434.50   487.96   880.17  1203.81  2023.95
                             2356.68

 Zero-point correction=                           0.017424 (Hartree/Particle)
 Thermal correction to Energy=                    0.030617
 Thermal correction to Enthalpy=                  0.031561
 Thermal correction to Gibbs Free Energy=        -0.025411
 Sum of electronic and zero-point Energies=          -4738.715187
 Sum of electronic and thermal Energies=             -4738.701994
 Sum of electronic and thermal Enthalpies=           -4738.701050
 Sum of electronic and thermal Free Energies=        -4738.758022

                     E (Thermal)             CV                S
                      KCal/Mol        Cal/Mol-Kelvin    Cal/Mol-Kelvin
 Total                   19.213             38.967            119.909
 Electronic               0.000              0.000              0.000
 Translational            0.889              2.981             44.265
 Rotational               0.889              2.981             32.426
 Vibrational             17.435             33.006             43.218
 Vibration     1          0.597              1.973              4.445
 Vibration     2          0.603              1.953              3.554
 Vibration     3          0.605              1.945              3.353
 Vibration     4          0.608              1.937              3.178
 Vibration     5          0.609              1.933              3.108
 Vibration     6          0.611              1.926              2.981
 Vibration     7          0.613              1.920              2.901
 Vibration     8          0.616              1.911              2.773
 Vibration     9          0.617              1.907              2.723
 Vibration    10          0.618              1.902              2.662
 Vibration    11          0.638              1.839              2.130
 Vibration    12          0.670              1.742              1.646
 Vibration    13          0.677              1.721              1.569
 Vibration    14          0.684              1.698              1.494
 Vibration    15          0.689              1.683              1.445
 Vibration    16          0.694              1.670              1.406
 Vibration    17          0.719              1.597              1.216
 Vibration    18          0.971              1.007              0.430

 Normal termination of Gaussian 09 at Wed Aug 18 03:52:07 2021.
