 Gaussian 09, Revision D.01,
 Gaussian 09:  EM64L-G09RevD.01 24-Apr-2013

 ------------------------------------------------------------
 #b3lyp/gen pseudo=read opt freq=noraman scrf=(solvent=water)
 ------------------------------------------------------------

 ------------
 Estrutura 28
 ------------
 Symbolic Z-matrix:
 Charge = -2 Multiplicity = 1

 SCF Done:  E(RB3LYP) =  -6852.42284279     A.U. after   19 cycles
 SCF Done:  E(RB3LYP) =  -6852.47770518     A.U. after   14 cycles
 SCF Done:  E(RB3LYP) =  -6852.51549452     A.U. after   16 cycles
 SCF Done:  E(RB3LYP) =  -6852.53615646     A.U. after   15 cycles
 SCF Done:  E(RB3LYP) =  -6852.53999009     A.U. after   14 cycles
 SCF Done:  E(RB3LYP) =  -6852.53907487     A.U. after   14 cycles
 SCF Done:  E(RB3LYP) =  -6852.54037821     A.U. after   10 cycles
 SCF Done:  E(RB3LYP) =  -6852.54086018     A.U. after   12 cycles
 SCF Done:  E(RB3LYP) =  -6852.54101220     A.U. after   11 cycles
 SCF Done:  E(RB3LYP) =  -6852.54103823     A.U. after   10 cycles
 SCF Done:  E(RB3LYP) =  -6852.54103722     A.U. after   11 cycles
 SCF Done:  E(RB3LYP) =  -6852.54103375     A.U. after   10 cycles
 SCF Done:  E(RB3LYP) =  -6852.54103225     A.U. after    9 cycles
 Optimization completed.
    -- Stationary point found.
 Normal termination of Gaussian 09 at Wed Aug 18 03:58:16 2021.

 ------------------------------------------------------------------
 #N Geom=AllCheck Guess=TCheck SCRF=Check GenChk RB3LYP/ChkBas Freq
 ------------------------------------------------------------------

 Structure from the checkpoint file:  "/home/scr/diego/Gau-11805.chk"
 ------------
 Estrutura 28
 ------------
 Charge = -2 Multiplicity = 1

                         Standard orientation:
 ---------------------------------------------------------------------
 Center     Atomic      Atomic             Coordinates (Angstroms)
 Number     Number       Type             X           Y           Z
 ---------------------------------------------------------------------
      1         78           0        0.120612   -0.231862   -0.010620
      2         17           0       -0.159219   -2.637611   -0.122479
      3         35           0        0.449559    2.296823    0.120111
      4          7           0        2.214689   -0.504626   -0.017954
      5          8           0        2.873871    0.178239   -0.774977
      6          8           0        2.678954   -1.339942    0.730494
      7         17           0        0.119140   -0.307052    2.402678
      8         17           0        0.136799   -0.148323   -2.424537
      9         35           0       -2.477485    0.088664   -0.012579
 ---------------------------------------------------------------------

 SCF Done:  E(RB3LYP) =  -6852.54103225     A.U. after    1 cycles

 The electronic state is 1-A.
 Alpha  occ. eigenvalues -- -482.74975-482.73319-101.45170-101.45154-101.45038
 Alpha  occ. eigenvalues --  -62.43087 -62.41430 -56.26289 -56.25989 -56.25984
 Alpha  occ. eigenvalues --  -56.24593 -56.24351 -56.24351 -19.16122 -19.16110
 Alpha  occ. eigenvalues --  -14.53289  -9.40346  -9.40329  -9.40213  -8.64799
 Alpha  occ. eigenvalues --   -8.63130  -7.17162  -7.17144  -7.17022  -7.16329
 Alpha  occ. eigenvalues --   -7.16319  -7.16313  -7.16303  -7.16201  -7.16191
 Alpha  occ. eigenvalues --   -6.47990  -6.46935  -6.46920  -6.46183  -6.45331
 Alpha  occ. eigenvalues --   -6.45330  -4.01057  -2.59429  -2.59142  -2.59131
 Alpha  occ. eigenvalues --   -2.58303  -2.58303  -2.57650  -2.57415  -2.57414
 Alpha  occ. eigenvalues --   -2.56746  -2.56746  -2.22153  -2.22027  -2.21998
 Alpha  occ. eigenvalues --   -1.20641  -1.03747  -0.76184  -0.74739  -0.74672
 Alpha  occ. eigenvalues --   -0.71985  -0.70379  -0.63011  -0.53260  -0.51859
 Alpha  occ. eigenvalues --   -0.50208  -0.39900  -0.39210  -0.37890  -0.37050
 Alpha  occ. eigenvalues --   -0.36237  -0.34498  -0.31741  -0.31332  -0.31248
 Alpha  occ. eigenvalues --   -0.28427  -0.28327  -0.26688  -0.26483  -0.26407
 Alpha  occ. eigenvalues --   -0.25532  -0.25500  -0.25174  -0.24617  -0.24525
 Alpha  occ. eigenvalues --   -0.24101  -0.23846
 Alpha virt. eigenvalues --   -0.11548  -0.10190  -0.04666   0.05472   0.05824
 Alpha virt. eigenvalues --    0.05921   0.08141   0.22114   0.22671   0.23605
 Alpha virt. eigenvalues --    0.30235   0.35816   0.36372   0.36981   0.40813

 Mulliken charges:
               1
     1  Pt  -0.370051
     2  Cl  -0.262995
     3  Br  -0.201174
     4  N    0.147644
     5  O   -0.250826
     6  O   -0.250280
     7  Cl  -0.257258
     8  Cl  -0.257621
     9  Br  -0.297440
 Sum of Mulliken charges =  -2.00000

 Dipole moment (field-independent basis, Debye):
    X=             -0.1561    Y=              2.1954    Z=              0.1118  Tot=              2.2038
 Quadrupole moment (field-independent basis, Debye-Ang):
   XX=           -147.9919   YY=           -142.9510   ZZ=           -142.0341
   XY=              0.8097   XZ=              0.3202   YZ=              2.1254

  Exact polarizability: 219.304  -2.126 210.233  -0.694  -5.054 182.062
 Approx polarizability: 314.916  -3.087 304.442  -2.308 -16.086 269.203

                      1                      2                      3
                      A                      A                      A
 Frequencies --     65.5695                81.5174                88.4703
 Red. masses --     21.8215                46.8864                39.8693
 Frc consts  --      0.0553                 0.1836                 0.1839
 IR Inten    --      0.1682                 0.3164                 0.2415

                      4                      5                      6
                      A                      A                      A
 Frequencies --    106.7890               111.0565               126.1393
 Red. masses --     24.2641                47.3138                30.9758
 Frc consts  --      0.1630                 0.3438                 0.2904
 IR Inten    --      0.5190                 0.9877                 0.4448

                      7                      8                      9
                      A                      A                      A
 Frequencies --    135.5421               137.2860               142.0696
 Red. masses --     28.6094                31.1012                30.3065
 Frc consts  --      0.3097                 0.3454                 0.3604
 IR Inten    --      0.2900                 0.3664                 1.9649

                     10                     11                     12
                      A                      A                      A
 Frequencies --    149.5411               177.9839               200.1016
 Red. masses --     39.1690                64.7995                75.2228
 Frc consts  --      0.5161                 1.2094                 1.7746
 IR Inten    --      3.3336                30.1818                12.9609

                     13                     14                     15
                      A                      A                      A
 Frequencies --    260.3670               285.6146               294.3098
 Red. masses --     18.7316                34.4579                31.0196
 Frc consts  --      0.7482                 1.6562                 1.5831
 IR Inten    --     39.2997                48.6117                31.8038

                     16                     17                     18
                      A                      A                      A
 Frequencies --    301.2313               334.1735               603.8745
 Red. masses --     37.6367                20.1516                14.4404
 Frc consts  --      2.0122                 1.3259                 3.1026
 IR Inten    --     79.3095                17.2936                18.1328

                     19                     20                     21
                      A                      A                      A
 Frequencies --    831.9774              1403.1859              1642.9036
 Red. masses --     15.2818                15.1383                14.6414
 Frc consts  --      6.2323                17.5613                23.2839
 IR Inten    --    288.5031              1009.6998               541.7380

 - Thermochemistry -
 -------------------
 Temperature   298.150 Kelvin.  Pressure   1.00000 Atm.
 Atom     1 has atomic number 78 and mass 194.96480

 Molecular mass:   503.70093 amu.
 Principal axes and moments of inertia in atomic units:
                           1         2         3
     Eigenvalues --  4050.522214457.053985456.09669
           X            0.99822  -0.05961  -0.00162
           Y            0.05960   0.99818  -0.00885
           Z            0.00214   0.00874   0.99996
 This molecule is an asymmetric top.
 Rotational symmetry number  1.
 Warning -- assumption of classical behavior for rotation
           may cause significant error
 Rotational temperatures (Kelvin)      0.02138     0.01943     0.01587
 Rotational constants (GHZ):           0.44556     0.40492     0.33078
 Zero-point vibrational energy      44738.6 (Joules/Mol)
                                   10.69277 (Kcal/Mol)
 Warning -- explicit consideration of  18 degrees of freedom as
           vibrations may cause significant error
 Vibrational temperatures:     94.34   117.29   127.29   153.65   159.79
          (Kelvin)            181.49   195.01   197.52   204.41   215.16
                              256.08   287.90   374.61   410.94   423.45
                              433.40   480.80   868.84  1197.03  2018.87
                             2363.77

 Zero-point correction=                           0.017040 (Hartree/Particle)
 Thermal correction to Energy=                    0.030490
 Thermal correction to Enthalpy=                  0.031434
 Thermal correction to Gibbs Free Energy=        -0.026748
 Sum of electronic and zero-point Energies=          -6852.523992
 Sum of electronic and thermal Energies=             -6852.510543
 Sum of electronic and thermal Enthalpies=           -6852.509598
 Sum of electronic and thermal Free Energies=        -6852.567780

                     E (Thermal)             CV                S
                      KCal/Mol        Cal/Mol-Kelvin    Cal/Mol-Kelvin
 Total                   19.133             39.201            122.453
 Electronic               0.000              0.000              0.000
 Translational            0.889              2.981             44.537
 Rotational               0.889              2.981             32.954
 Vibrational             17.355             33.240             44.961
 Vibration     1          0.597              1.971              4.282
 Vibration     2          0.600              1.962              3.854
 Vibration     3          0.601              1.957              3.694
 Vibration     4          0.606              1.944              3.326
 Vibration     5          0.607              1.940              3.250
 Vibration     6          0.611              1.927              3.004
 Vibration     7          0.613              1.918              2.866
 Vibration     8          0.614              1.916              2.841
 Vibration     9          0.616              1.911              2.776
 Vibration    10          0.618              1.903              2.678
 Vibration    11          0.628              1.869              2.349
 Vibration    12          0.638              1.840              2.132
 Vibration    13          0.668              1.745              1.659
 Vibration    14          0.683              1.700              1.500
 Vibration    15          0.689              1.684              1.449
 Vibration    16          0.693              1.671              1.410
 Vibration    17          0.716              1.607              1.240
 Vibration    18          0.962              1.024              0.443

 Optimization completed.
    -- Stationary point found.
 Normal termination of Gaussian 09 at Wed Aug 18 03:59:51 2021.
