 Gaussian 09, Revision D.01,
 Gaussian 09:  EM64L-G09RevD.01 24-Apr-2013

 ------------------------------------------------------------
 #b3lyp/gen pseudo=read opt freq=noraman scrf=(solvent=water)
 ------------------------------------------------------------

 ------------
 Estrutura 29
 ------------
 Symbolic Z-matrix:
 Charge = -2 Multiplicity = 1

 SCF Done:  E(RB3LYP) =  -6852.35586046     A.U. after   19 cycles
 SCF Done:  E(RB3LYP) =  -6852.43467764     A.U. after   13 cycles
 SCF Done:  E(RB3LYP) =  -6852.50433641     A.U. after   16 cycles
 SCF Done:  E(RB3LYP) =  -6852.53551304     A.U. after   15 cycles
 SCF Done:  E(RB3LYP) =  -6852.53816280     A.U. after   14 cycles
 SCF Done:  E(RB3LYP) =  -6852.53540120     A.U. after   15 cycles
 SCF Done:  E(RB3LYP) =  -6852.53962355     A.U. after   10 cycles
 SCF Done:  E(RB3LYP) =  -6852.54074034     A.U. after   13 cycles
 SCF Done:  E(RB3LYP) =  -6852.54090127     A.U. after   11 cycles
 SCF Done:  E(RB3LYP) =  -6852.54006779     A.U. after   14 cycles
 SCF Done:  E(RB3LYP) =  -6852.54090639     A.U. after    8 cycles
 SCF Done:  E(RB3LYP) =  -6852.54092431     A.U. after   11 cycles
 SCF Done:  E(RB3LYP) =  -6852.54093490     A.U. after   10 cycles
 SCF Done:  E(RB3LYP) =  -6852.54094073     A.U. after   10 cycles
 Optimization completed.
    -- Stationary point found.
 Normal termination of Gaussian 09 at Wed Aug 18 04:06:33 2021.

 ------------------------------------------------------------------
 #N Geom=AllCheck Guess=TCheck SCRF=Check GenChk RB3LYP/ChkBas Freq
 ------------------------------------------------------------------

 Structure from the checkpoint file:  "/home/scr/diego/Gau-13009.chk"
 ------------
 Estrutura 29
 ------------
 Charge = -2 Multiplicity = 1

                         Standard orientation:
 ---------------------------------------------------------------------
 Center     Atomic      Atomic             Coordinates (Angstroms)
 Number     Number       Type             X           Y           Z
 ---------------------------------------------------------------------
      1         78           0       -0.000090   -0.296114    0.107109
      2         17           0       -0.001233   -0.013669    2.554400
      3         17           0        1.705539   -2.007677    0.290387
      4         35           0        1.794484    1.511024   -0.100113
      5         17           0       -1.703491   -2.008800    0.289660
      6         35           0       -1.796586    1.508318   -0.102536
      7          7           0        0.002341   -0.557350   -1.978519
      8          8           0        1.075963   -0.634386   -2.542231
      9          8           0       -1.069678   -0.636381   -2.544994
 ---------------------------------------------------------------------

 SCF Done:  E(RB3LYP) =  -6852.54094073     A.U. after    1 cycles

 The electronic state is 1-A.
 Alpha  occ. eigenvalues -- -482.74930-482.74924-101.45008-101.45000-101.43393
 Alpha  occ. eigenvalues --  -62.43041 -62.43035 -56.26244 -56.26238 -56.25943
 Alpha  occ. eigenvalues --  -56.25939 -56.25937 -56.25933 -19.15851 -19.15848
 Alpha  occ. eigenvalues --  -14.53146  -9.40185  -9.40178  -9.38576  -8.64753
 Alpha  occ. eigenvalues --   -8.64748  -7.16994  -7.16988  -7.16171  -7.16165
 Alpha  occ. eigenvalues --   -7.16160  -7.16154  -7.15298  -7.14606  -7.14605
 Alpha  occ. eigenvalues --   -6.47944  -6.47937  -6.46890  -6.46884  -6.46874
 Alpha  occ. eigenvalues --   -6.46869  -4.01032  -2.59383  -2.59377  -2.59096
 Alpha  occ. eigenvalues --   -2.59090  -2.59084  -2.59078  -2.58257  -2.58257
 Alpha  occ. eigenvalues --   -2.58252  -2.58252  -2.22094  -2.22018  -2.21981
 Alpha  occ. eigenvalues --   -1.20400  -1.03444  -0.75796  -0.74596  -0.73512
 Alpha  occ. eigenvalues --   -0.72124  -0.71591  -0.63011  -0.53114  -0.51695
 Alpha  occ. eigenvalues --   -0.50011  -0.39355  -0.39133  -0.37594  -0.37047
 Alpha  occ. eigenvalues --   -0.36322  -0.35234  -0.31487  -0.31101  -0.30925
 Alpha  occ. eigenvalues --   -0.28029  -0.27991  -0.26245  -0.26221  -0.26116
 Alpha  occ. eigenvalues --   -0.25433  -0.25376  -0.25360  -0.25116  -0.24592
 Alpha  occ. eigenvalues --   -0.24371  -0.24046
 Alpha virt. eigenvalues --   -0.11777  -0.09885  -0.04566   0.05431   0.05837
 Alpha virt. eigenvalues --    0.05945   0.08655   0.22271   0.22588   0.23359
 Alpha virt. eigenvalues --    0.30354   0.35657   0.36259   0.37054   0.39582

 Mulliken charges:
               1
     1  Pt  -0.382617
     2  Cl  -0.323747
     3  Cl  -0.261039
     4  Br  -0.200789
     5  Cl  -0.260852
     6  Br  -0.200544
     7  N    0.139470
     8  O   -0.254878
     9  O   -0.255004
 Sum of Mulliken charges =  -2.00000

 Dipole moment (field-independent basis, Debye):
    X=             -0.0061    Y=              2.8787    Z=             -1.5809  Tot=              3.2843
 Quadrupole moment (field-independent basis, Debye-Ang):
   XX=           -144.6020   YY=           -141.1163   ZZ=           -147.3260
   XY=             -0.0008   XZ=              0.0045   YZ=             -0.5142

  Exact polarizability: 216.986  -0.012 202.808  -0.001   0.648 186.801
 Approx polarizability: 322.402  -0.017 286.269  -0.001   1.766 272.503

                      1                      2                      3
                      A                      A                      A
 Frequencies --     43.2485                83.7653                93.5593
 Red. masses --     23.7064                66.4877                35.1418
 Frc consts  --      0.0261                 0.2749                 0.1812
 IR Inten    --      0.0164                 1.3117                 1.4341

                      4                      5                      6
                      A                      A                      A
 Frequencies --     98.5414               108.3036               121.9551
 Red. masses --     24.1475                41.2713                25.5385
 Frc consts  --      0.1382                 0.2852                 0.2238
 IR Inten    --      0.1885                 1.1695                 0.3614

                      7                      8                      9
                      A                      A                      A
 Frequencies --    122.5623               131.9527               133.4165
 Red. masses --     27.6691                31.3379                33.6334
 Frc consts  --      0.2449                 0.3215                 0.3527
 IR Inten    --      0.4557                 1.0539                 0.1706

                     10                     11                     12
                      A                      A                      A
 Frequencies --    145.3789               193.3174               200.2944
 Red. masses --     37.4497                67.4628                78.5552
 Frc consts  --      0.4663                 1.4854                 1.8568
 IR Inten    --      0.1911                 8.8869                14.4926

                     13                     14                     15
                      A                      A                      A
 Frequencies --    260.8371               272.4816               282.9475
 Red. masses --     24.0233                26.4081                32.8740
 Frc consts  --      0.9630                 1.1552                 1.5507
 IR Inten    --     25.8179                91.0686                63.7188

                     16                     17                     18
                      A                      A                      A
 Frequencies --    297.0900               335.5846               611.3858
 Red. masses --     38.2705                18.4174                14.4475
 Frc consts  --      1.9902                 1.2220                 3.1818
 IR Inten    --     76.8206                 7.7250                17.3762

                     19                     20                     21
                      A                      A                      A
 Frequencies --    835.5031              1405.3557              1635.8350
 Red. masses --     15.2998                15.1246                14.6412
 Frc consts  --      6.2926                17.5997                23.0837
 IR Inten    --    237.2371               818.3787               533.4231

 - Thermochemistry -
 -------------------
 Temperature   298.150 Kelvin.  Pressure   1.00000 Atm.
 Atom     1 has atomic number 78 and mass 194.96480

 Molecular mass:   503.70093 amu.
 Principal axes and moments of inertia in atomic units:
                           1         2         3
     Eigenvalues --  4197.900594457.956065088.47927
           X            1.00000  -0.00018  -0.00016
           Y            0.00019   0.99956   0.02982
           Z            0.00015  -0.02982   0.99956
 This molecule is an asymmetric top.
 Rotational symmetry number  1.
 Warning -- assumption of classical behavior for rotation
           may cause significant error
 Rotational temperatures (Kelvin)      0.02063     0.01943     0.01702
 Rotational constants (GHZ):           0.42992     0.40484     0.35467
 Zero-point vibrational energy      44341.5 (Joules/Mol)
                                   10.59787 (Kcal/Mol)
 Warning -- explicit consideration of  18 degrees of freedom as
           vibrations may cause significant error
 Vibrational temperatures:     62.22   120.52   134.61   141.78   155.82
          (Kelvin)            175.47   176.34   189.85   191.96   209.17
                              278.14   288.18   375.29   392.04   407.10
                              427.45   482.83   879.65  1202.10  2021.99
                             2353.60

 Zero-point correction=                           0.016889 (Hartree/Particle)
 Thermal correction to Energy=                    0.030460
 Thermal correction to Enthalpy=                  0.031404
 Thermal correction to Gibbs Free Energy=        -0.027410
 Sum of electronic and zero-point Energies=          -6852.524052
 Sum of electronic and thermal Energies=             -6852.510481
 Sum of electronic and thermal Enthalpies=           -6852.509537
 Sum of electronic and thermal Free Energies=        -6852.568351

                     E (Thermal)             CV                S
                      KCal/Mol        Cal/Mol-Kelvin    Cal/Mol-Kelvin
 Total                   19.114             39.256            123.784
 Electronic               0.000              0.000              0.000
 Translational            0.889              2.981             44.537
 Rotational               0.889              2.981             32.921
 Vibrational             17.336             33.295             46.325
 Vibration     1          0.595              1.980              5.104
 Vibration     2          0.601              1.960              3.801
 Vibration     3          0.603              1.954              3.584
 Vibration     4          0.604              1.950              3.483
 Vibration     5          0.606              1.943              3.299
 Vibration     6          0.609              1.931              3.069
 Vibration     7          0.610              1.930              3.060
 Vibration     8          0.612              1.921              2.917
 Vibration     9          0.613              1.920              2.896
 Vibration    10          0.617              1.908              2.732
 Vibration    11          0.635              1.849              2.196
 Vibration    12          0.638              1.839              2.130
 Vibration    13          0.669              1.744              1.656
 Vibration    14          0.675              1.724              1.580
 Vibration    15          0.682              1.705              1.516
 Vibration    16          0.691              1.679              1.433
 Vibration    17          0.717              1.604              1.233
 Vibration    18          0.971              1.008              0.430

 Normal termination of Gaussian 09 at Wed Aug 18 04:08:10 2021.
