 Gaussian 09, Revision D.01,
 Gaussian 09:  EM64L-G09RevD.01 24-Apr-2013

 ------------------------------------------------------------
 #b3lyp/gen pseudo=read opt freq=noraman scrf=(solvent=water)
 ------------------------------------------------------------

 ------------
 Estrutura 30
 ------------
 Symbolic Z-matrix:
 Charge = -2 Multiplicity = 1

 SCF Done:  E(RB3LYP) =  -6852.35658024     A.U. after   19 cycles
 SCF Done:  E(RB3LYP) =  -6852.43371351     A.U. after   15 cycles
 SCF Done:  E(RB3LYP) =  -6852.49961320     A.U. after   15 cycles
 SCF Done:  E(RB3LYP) =  -6852.53268081     A.U. after   15 cycles
 SCF Done:  E(RB3LYP) =  -6852.53562554     A.U. after   15 cycles
 SCF Done:  E(RB3LYP) =  -6852.53668914     A.U. after   14 cycles
 SCF Done:  E(RB3LYP) =  -6852.53885640     A.U. after   13 cycles
 SCF Done:  E(RB3LYP) =  -6852.53910687     A.U. after   11 cycles
 SCF Done:  E(RB3LYP) =  -6852.53924012     A.U. after   12 cycles
 SCF Done:  E(RB3LYP) =  -6852.53949381     A.U. after   14 cycles
 SCF Done:  E(RB3LYP) =  -6852.54040946     A.U. after   14 cycles
 SCF Done:  E(RB3LYP) =  -6852.53570577     A.U. after   14 cycles
 SCF Done:  E(RB3LYP) =  -6852.54058011     A.U. after   11 cycles
 SCF Done:  E(RB3LYP) =  -6852.54082989     A.U. after   13 cycles
 SCF Done:  E(RB3LYP) =  -6852.54097773     A.U. after   11 cycles
 SCF Done:  E(RB3LYP) =  -6852.54101597     A.U. after   11 cycles
 SCF Done:  E(RB3LYP) =  -6852.54102831     A.U. after   11 cycles
 SCF Done:  E(RB3LYP) =  -6852.54103121     A.U. after   11 cycles
 SCF Done:  E(RB3LYP) =  -6852.54103203     A.U. after   10 cycles
 Optimization completed.
    -- Stationary point found.
 Normal termination of Gaussian 09 at Wed Aug 18 04:17:55 2021.

 ------------------------------------------------------------------
 #N Geom=AllCheck Guess=TCheck SCRF=Check GenChk RB3LYP/ChkBas Freq
 ------------------------------------------------------------------

 Structure from the checkpoint file:  "/home/scr/diego/Gau-14296.chk"
 ------------
 Estrutura 30
 ------------
 Charge = -2 Multiplicity = 1

                         Standard orientation:
 ---------------------------------------------------------------------
 Center     Atomic      Atomic             Coordinates (Angstroms)
 Number     Number       Type             X           Y           Z
 ---------------------------------------------------------------------
      1         78           0       -0.120393   -0.231778    0.010504
      2         17           0       -0.136817   -0.151492    2.424591
      3         17           0        0.158816   -2.637606    0.120384
      4         35           0        2.477121    0.088290    0.012590
      5         35           0       -0.449247    2.297219   -0.118396
      6         17           0       -0.119786   -0.304435   -2.403566
      7          7           0       -2.214504   -0.504579    0.017884
      8          8           0       -2.679017   -1.339281   -0.731114
      9          8           0       -2.873611    0.177783    0.775457
 ---------------------------------------------------------------------

 SCF Done:  E(RB3LYP) =  -6852.54103203     A.U. after    1 cycles

 The electronic state is 1-A.
 Alpha  occ. eigenvalues -- -482.74975-482.73322-101.45169-101.45158-101.45040
 Alpha  occ. eigenvalues --  -62.43086 -62.41433 -56.26289 -56.25988 -56.25984
 Alpha  occ. eigenvalues --  -56.24597 -56.24354 -56.24354 -19.16119 -19.16106
 Alpha  occ. eigenvalues --  -14.53285  -9.40345  -9.40333  -9.40215  -8.64799
 Alpha  occ. eigenvalues --   -8.63134  -7.17160  -7.17148  -7.17023  -7.16327
 Alpha  occ. eigenvalues --   -7.16317  -7.16317  -7.16306  -7.16202  -7.16192
 Alpha  occ. eigenvalues --   -6.47989  -6.46935  -6.46920  -6.46187  -6.45335
 Alpha  occ. eigenvalues --   -6.45334  -4.01057  -2.59428  -2.59142  -2.59130
 Alpha  occ. eigenvalues --   -2.58302  -2.58302  -2.57654  -2.57419  -2.57418
 Alpha  occ. eigenvalues --   -2.56750  -2.56749  -2.22153  -2.22027  -2.21999
 Alpha  occ. eigenvalues --   -1.20637  -1.03742  -0.76183  -0.74738  -0.74673
 Alpha  occ. eigenvalues --   -0.71984  -0.70384  -0.63009  -0.53257  -0.51855
 Alpha  occ. eigenvalues --   -0.50205  -0.39896  -0.39210  -0.37887  -0.37048
 Alpha  occ. eigenvalues --   -0.36239  -0.34502  -0.31739  -0.31330  -0.31249
 Alpha  occ. eigenvalues --   -0.28426  -0.28325  -0.26691  -0.26482  -0.26406
 Alpha  occ. eigenvalues --   -0.25535  -0.25501  -0.25174  -0.24618  -0.24525
 Alpha  occ. eigenvalues --   -0.24104  -0.23847
 Alpha virt. eigenvalues --   -0.11552  -0.10190  -0.04664   0.05473   0.05823
 Alpha virt. eigenvalues --    0.05920   0.08139   0.22118   0.22661   0.23604
 Alpha virt. eigenvalues --    0.30238   0.35817   0.36369   0.36981   0.40814

 Mulliken charges:
               1
     1  Pt  -0.370117
     2  Cl  -0.257524
     3  Cl  -0.262927
     4  Br  -0.297237
     5  Br  -0.201276
     6  Cl  -0.257330
     7  N    0.147669
     8  O   -0.250357
     9  O   -0.250900
 Sum of Mulliken charges =  -2.00000

 Dipole moment (field-independent basis, Debye):
    X=              0.1618    Y=              2.1948    Z=             -0.1069  Tot=              2.2033
 Quadrupole moment (field-independent basis, Debye-Ang):
   XX=           -147.9880   YY=           -142.9479   ZZ=           -142.0412
   XY=             -0.8113   XZ=              0.3193   YZ=             -2.1225

  Exact polarizability: 219.239   2.125 210.244  -0.688   5.027 182.143
 Approx polarizability: 314.782   3.085 304.450  -2.294  16.021 269.370

                      1                      2                      3
                      A                      A                      A
 Frequencies --     65.6308                81.5028                88.5985
 Red. masses --     21.8908                46.7220                39.4034
 Frc consts  --      0.0556                 0.1829                 0.1822
 IR Inten    --      0.1695                 0.3123                 0.2430

                      4                      5                      6
                      A                      A                      A
 Frequencies --    106.6603               111.1440               126.1382
 Red. masses --     24.3181                47.4156                30.9691
 Frc consts  --      0.1630                 0.3451                 0.2903
 IR Inten    --      0.5209                 0.9883                 0.4409

                      7                      8                      9
                      A                      A                      A
 Frequencies --    135.6744               137.5475               142.1768
 Red. masses --     28.9149                30.7864                30.2970
 Frc consts  --      0.3136                 0.3432                 0.3608
 IR Inten    --      0.2878                 0.3594                 1.9313

                     10                     11                     12
                      A                      A                      A
 Frequencies --    149.6215               178.1851               200.0493
 Red. masses --     39.2269                64.8105                75.2356
 Frc consts  --      0.5174                 1.2124                 1.7740
 IR Inten    --      3.2999                30.1529                13.0109

                     13                     14                     15
                      A                      A                      A
 Frequencies --    260.2995               285.6124               293.9901
 Red. masses --     18.7414                34.5249                30.9713
 Frc consts  --      0.7482                 1.6593                 1.5772
 IR Inten    --     39.3441                47.8113                33.4755

                     16                     17                     18
                      A                      A                      A
 Frequencies --    301.2003               334.0750               603.9046
 Red. masses --     37.7339                20.1205                14.4403
 Frc consts  --      2.0169                 1.3231                 3.1029
 IR Inten    --     78.6370                17.1185                18.1390

                     19                     20                     21
                      A                      A                      A
 Frequencies --    831.9863              1403.2079              1642.7935
 Red. masses --     15.2818                15.1381                14.6414
 Frc consts  --      6.2324                17.5617                23.2808
 IR Inten    --    288.2849              1009.0521               541.6862

 - Thermochemistry -
 -------------------
 Temperature   298.150 Kelvin.  Pressure   1.00000 Atm.
 Atom     1 has atomic number 78 and mass 194.96480

 Molecular mass:   503.70093 amu.
 Principal axes and moments of inertia in atomic units:
                           1         2         3
     Eigenvalues --  4051.265334456.812275455.63563
           X            0.99821   0.05980  -0.00161
           Y           -0.05979   0.99817   0.00876
           Z            0.00213  -0.00864   0.99996
 This molecule is an asymmetric top.
 Rotational symmetry number  1.
 Warning -- assumption of classical behavior for rotation
           may cause significant error
 Rotational temperatures (Kelvin)      0.02138     0.01943     0.01588
 Rotational constants (GHZ):           0.44548     0.40494     0.33080
 Zero-point vibrational energy      44740.3 (Joules/Mol)
                                   10.69319 (Kcal/Mol)
 Warning -- explicit consideration of  18 degrees of freedom as
           vibrations may cause significant error
 Vibrational temperatures:     94.43   117.26   127.47   153.46   159.91
          (Kelvin)            181.48   195.20   197.90   204.56   215.27
                              256.37   287.83   374.51   410.93   422.99
                              433.36   480.66   868.88  1197.04  2018.90
                             2363.61

 Zero-point correction=                           0.017041 (Hartree/Particle)
 Thermal correction to Energy=                    0.030489
 Thermal correction to Enthalpy=                  0.031434
 Thermal correction to Gibbs Free Energy=        -0.026743
 Sum of electronic and zero-point Energies=          -6852.523991
 Sum of electronic and thermal Energies=             -6852.510543
 Sum of electronic and thermal Enthalpies=           -6852.509598
 Sum of electronic and thermal Free Energies=        -6852.567775

                     E (Thermal)             CV                S
                      KCal/Mol        Cal/Mol-Kelvin    Cal/Mol-Kelvin
 Total                   19.132             39.201            122.443
 Electronic               0.000              0.000              0.000
 Translational            0.889              2.981             44.537
 Rotational               0.889              2.981             32.954
 Vibrational             17.355             33.240             44.951
 Vibration     1          0.597              1.971              4.280
 Vibration     2          0.600              1.962              3.854
 Vibration     3          0.601              1.957              3.691
 Vibration     4          0.606              1.944              3.329
 Vibration     5          0.607              1.940              3.249
 Vibration     6          0.611              1.927              3.004
 Vibration     7          0.614              1.918              2.864
 Vibration     8          0.614              1.916              2.838
 Vibration     9          0.616              1.911              2.774
 Vibration    10          0.618              1.903              2.677
 Vibration    11          0.629              1.869              2.347
 Vibration    12          0.638              1.840              2.133
 Vibration    13          0.668              1.745              1.660
 Vibration    14          0.683              1.700              1.500
 Vibration    15          0.689              1.685              1.451
 Vibration    16          0.693              1.671              1.410
 Vibration    17          0.716              1.607              1.240
 Vibration    18          0.962              1.024              0.443

 Optimization completed.
    -- Stationary point found.
 Normal termination of Gaussian 09 at Wed Aug 18 04:19:31 2021.
