 Gaussian 09, Revision D.01,
 Gaussian 09:  EM64L-G09RevD.01 24-Apr-2013

 ------------------------------------------------------------
 #b3lyp/gen pseudo=read opt freq=noraman scrf=(solvent=water)
 ------------------------------------------------------------

 ------------
 Estrutura 31
 ------------
 Symbolic Z-matrix:
 Charge = -2 Multiplicity = 1

 SCF Done:  E(RB3LYP) =  -8966.23073628     A.U. after   18 cycles
 SCF Done:  E(RB3LYP) =  -8966.28300858     A.U. after   14 cycles
 SCF Done:  E(RB3LYP) =  -8966.31679450     A.U. after   15 cycles
 SCF Done:  E(RB3LYP) =  -8966.34299753     A.U. after   15 cycles
 SCF Done:  E(RB3LYP) =  -8966.34443775     A.U. after   15 cycles
 SCF Done:  E(RB3LYP) =  -8966.34467702     A.U. after   14 cycles
 SCF Done:  E(RB3LYP) =  -8966.34665576     A.U. after   13 cycles
 SCF Done:  E(RB3LYP) =  -8966.34704054     A.U. after   12 cycles
 SCF Done:  E(RB3LYP) =  -8966.30401288     A.U. after   18 cycles
 SCF Done:  E(RB3LYP) =  -8966.34715988     A.U. after   12 cycles
 SCF Done:  E(RB3LYP) =  -8966.34807235     A.U. after   12 cycles
 SCF Done:  E(RB3LYP) =  -8966.34775524     A.U. after   14 cycles
 SCF Done:  E(RB3LYP) =  -8966.34828345     A.U. after   10 cycles
 SCF Done:  E(RB3LYP) =  -8966.34868737     A.U. after   12 cycles
 SCF Done:  E(RB3LYP) =  -8966.34880237     A.U. after   14 cycles
 SCF Done:  E(RB3LYP) =  -8966.34926503     A.U. after   13 cycles
 SCF Done:  E(RB3LYP) =  -8966.34927760     A.U. after   11 cycles
 SCF Done:  E(RB3LYP) =  -8966.34927870     A.U. after   10 cycles
 SCF Done:  E(RB3LYP) =  -8966.34927572     A.U. after   10 cycles
 Optimization completed.
    -- Stationary point found.
 Normal termination of Gaussian 09 at Wed Aug 18 04:31:56 2021.

 ------------------------------------------------------------------
 #N Geom=AllCheck Guess=TCheck SCRF=Check GenChk RB3LYP/ChkBas Freq
 ------------------------------------------------------------------

 Structure from the checkpoint file:  "/home/scr/diego/Gau-16044.chk"
 ------------
 Estrutura 31
 ------------
 Charge = -2 Multiplicity = 1

                         Standard orientation:
 ---------------------------------------------------------------------
 Center     Atomic      Atomic             Coordinates (Angstroms)
 Number     Number       Type             X           Y           Z
 ---------------------------------------------------------------------
      1         78           0       -0.003674   -0.196448   -0.075959
      2          7           0        0.004627   -0.313648    2.024956
      3          8           0        0.751787    0.423866    2.637889
      4          8           0       -0.736902   -1.117890    2.554199
      5         35           0        0.040112    2.351732    0.050769
      6         35           0       -2.567159   -0.113958   -0.061289
      7         35           0        2.559654   -0.278070   -0.079181
      8         17           0       -0.010327   -0.059115   -2.531846
      9         17           0       -0.048857   -2.618470   -0.212097
 ---------------------------------------------------------------------

 SCF Done:  E(RB3LYP) =  -8966.34927572     A.U. after    1 cycles

 The electronic state is 1-A.
 Alpha  occ. eigenvalues -- -482.74931-482.74853-482.74849-101.44984-101.43461
 Alpha  occ. eigenvalues --  -62.43041 -62.42962 -62.42959 -56.26245 -56.26163
 Alpha  occ. eigenvalues --  -56.26159 -56.25943 -56.25938 -56.25865 -56.25862
 Alpha  occ. eigenvalues --  -56.25861 -56.25858 -19.15813 -19.15797 -14.53102
 Alpha  occ. eigenvalues --   -9.40155  -9.38641  -8.64754  -8.64672  -8.64668
 Alpha  occ. eigenvalues --   -7.16963  -7.16143  -7.16132  -7.15366  -7.14669
 Alpha  occ. eigenvalues --   -7.14668  -6.47948  -6.47854  -6.47850  -6.46889
 Alpha  occ. eigenvalues --   -6.46873  -6.46811  -6.46809  -6.46796  -6.46794
 Alpha  occ. eigenvalues --   -4.00863  -2.59386  -2.59294  -2.59291  -2.59099
 Alpha  occ. eigenvalues --   -2.59086  -2.59011  -2.59008  -2.58999  -2.58996
 Alpha  occ. eigenvalues --   -2.58255  -2.58255  -2.58181  -2.58181  -2.58179
 Alpha  occ. eigenvalues --   -2.58179  -2.21971  -2.21874  -2.21757  -1.20341
 Alpha  occ. eigenvalues --   -1.03360  -0.75343  -0.73696  -0.72312  -0.71596
 Alpha  occ. eigenvalues --   -0.71519  -0.62968  -0.53059  -0.51640  -0.49965
 Alpha  occ. eigenvalues --   -0.39207  -0.38550  -0.37270  -0.36899  -0.36121
 Alpha  occ. eigenvalues --   -0.35264  -0.31291  -0.31045  -0.30634  -0.27890
 Alpha  occ. eigenvalues --   -0.27702  -0.26032  -0.25759  -0.25518  -0.25405
 Alpha  occ. eigenvalues --   -0.25341  -0.25252  -0.24973  -0.24467  -0.24176
 Alpha  occ. eigenvalues --   -0.23762
 Alpha virt. eigenvalues --   -0.12045  -0.09990  -0.04566   0.05343   0.05791
 Alpha virt. eigenvalues --    0.05911   0.08311   0.21481   0.21633   0.22510
 Alpha virt. eigenvalues --    0.30007   0.34349   0.35232   0.36306   0.36977

 Mulliken charges:
               1
     1  Pt  -0.437095
     2  N    0.139533
     3  O   -0.256176
     4  O   -0.255088
     5  Br  -0.195546
     6  Br  -0.207918
     7  Br  -0.207681
     8  Cl  -0.319390
     9  Cl  -0.260639
 Sum of Mulliken charges =  -2.00000

 Dipole moment (field-independent basis, Debye):
    X=              0.0483    Y=              1.9651    Z=              1.2261  Tot=              2.3167
 Quadrupole moment (field-independent basis, Debye-Ang):
   XX=           -148.8328   YY=           -149.0247   ZZ=           -153.5244
   XY=             -2.1706   XZ=             -0.1659   YZ=              0.0395

  Exact polarizability: 248.847   4.814 215.752   0.179  -0.209 192.927
 Approx polarizability: 352.612  15.907 312.785   0.988   0.001 281.409

                      1                      2                      3
                      A                      A                      A
 Frequencies --     47.4445                74.6122                83.4894
 Red. masses --     22.5890                55.6280                55.3379
 Frc consts  --      0.0300                 0.1825                 0.2273
 IR Inten    --      0.0700                 1.4694                 1.3399

                      4                      5                      6
                      A                      A                      A
 Frequencies --     96.2394               105.2940               106.9827
 Red. masses --     31.3105                28.6928                32.0102
 Frc consts  --      0.1709                 0.1874                 0.2159
 IR Inten    --      0.4195                 0.3631                 0.1708

                      7                      8                      9
                      A                      A                      A
 Frequencies --    111.0845               126.9175               130.7115
 Red. masses --     36.8062                31.1138                36.8896
 Frc consts  --      0.2676                 0.2953                 0.3713
 IR Inten    --      0.9145                 0.4624                 0.8152

                     10                     11                     12
                      A                      A                      A
 Frequencies --    135.4999               173.6428               198.7074
 Red. masses --     30.7885                76.5250                71.3447
 Frc consts  --      0.3331                 1.3595                 1.6597
 IR Inten    --      1.7639                 0.0551                11.2587

                     13                     14                     15
                      A                      A                      A
 Frequencies --    211.3106               261.3401               274.2467
 Red. masses --     87.4260                19.0719                37.0247
 Frc consts  --      2.3000                 0.7675                 1.6407
 IR Inten    --     60.0774                 3.6095               108.0322

                     16                     17                     18
                      A                      A                      A
 Frequencies --    289.1917               330.3139               609.9191
 Red. masses --     32.6352                18.5046                14.4461
 Frc consts  --      1.6081                 1.1896                 3.1663
 IR Inten    --     64.6138                 8.5000                18.2877

                     19                     20                     21
                      A                      A                      A
 Frequencies --    836.8478              1404.2660              1632.4834
 Red. masses --     15.3030                15.1204                14.6420
 Frc consts  --      6.3142                17.5676                22.9904
 IR Inten    --    236.7017               806.7990               528.6901

 - Thermochemistry -
 -------------------
 Temperature   298.150 Kelvin.  Pressure   1.00000 Atm.
 Atom     1 has atomic number 78 and mass 194.96480

 Molecular mass:   547.65042 amu.
 Principal axes and moments of inertia in atomic units:
                           1         2         3
     Eigenvalues --  4342.303365556.330366321.77861
           X            0.99997   0.00811   0.00055
           Y           -0.00810   0.99989  -0.01250
           Z           -0.00065   0.01249   0.99992
 This molecule is an asymmetric top.
 Rotational symmetry number  1.
 Warning -- assumption of classical behavior for rotation
           may cause significant error
 Rotational temperatures (Kelvin)      0.01995     0.01559     0.01370
 Rotational constants (GHZ):           0.41562     0.32481     0.28548
 Zero-point vibrational energy      43308.1 (Joules/Mol)
                                   10.35088 (Kcal/Mol)
 Warning -- explicit consideration of  18 degrees of freedom as
           vibrations may cause significant error
 Vibrational temperatures:     68.26   107.35   120.12   138.47   151.49
          (Kelvin)            153.92   159.83   182.61   188.06   194.95
                              249.83   285.90   304.03   376.01   394.58
                              416.08   475.25   877.54  1204.04  2020.42
                             2348.78

 Zero-point correction=                           0.016495 (Hartree/Particle)
 Thermal correction to Energy=                    0.030335
 Thermal correction to Enthalpy=                  0.031279
 Thermal correction to Gibbs Free Energy=        -0.028754
 Sum of electronic and zero-point Energies=          -8966.332781
 Sum of electronic and thermal Energies=             -8966.318941
 Sum of electronic and thermal Enthalpies=           -8966.317996
 Sum of electronic and thermal Free Energies=        -8966.378030

                     E (Thermal)             CV                S
                      KCal/Mol        Cal/Mol-Kelvin    Cal/Mol-Kelvin
 Total                   19.036             39.481            126.351
 Electronic               0.000              0.000              0.000
 Translational            0.889              2.981             44.787
 Rotational               0.889              2.981             33.389
 Vibrational             17.258             33.520             48.175
 Vibration     1          0.595              1.979              4.921
 Vibration     2          0.599              1.966              4.028
 Vibration     3          0.600              1.961              3.807
 Vibration     4          0.603              1.952              3.529
 Vibration     5          0.605              1.945              3.354
 Vibration     6          0.606              1.944              3.323
 Vibration     7          0.607              1.940              3.250
 Vibration     8          0.611              1.926              2.992
 Vibration     9          0.612              1.923              2.936
 Vibration    10          0.613              1.918              2.866
 Vibration    11          0.627              1.875              2.396
 Vibration    12          0.637              1.842              2.145
 Vibration    13          0.643              1.824              2.032
 Vibration    14          0.669              1.744              1.653
 Vibration    15          0.677              1.721              1.569
 Vibration    16          0.686              1.694              1.479
 Vibration    17          0.713              1.615              1.259
 Vibration    18          0.969              1.011              0.433

 Optimization completed.
    -- Stationary point found.
 Normal termination of Gaussian 09 at Wed Aug 18 04:33:54 2021.
