 Gaussian 09, Revision D.01,
 Gaussian 09:  EM64L-G09RevD.01 24-Apr-2013

 ------------------------------------------------------------
 #b3lyp/gen pseudo=read opt freq=noraman scrf=(solvent=water)
 ------------------------------------------------------------

 ------------
 Estrutura 32
 ------------
 Symbolic Z-matrix:
 Charge = -2 Multiplicity = 1

 SCF Done:  E(RB3LYP) =  -8966.10423455     A.U. after   19 cycles
 SCF Done:  E(RB3LYP) =  -8966.20492387     A.U. after   15 cycles
 SCF Done:  E(RB3LYP) =  -8966.30252442     A.U. after   15 cycles
 SCF Done:  E(RB3LYP) =  -8966.34110765     A.U. after   16 cycles
 SCF Done:  E(RB3LYP) =  -8966.34468906     A.U. after   15 cycles
 SCF Done:  E(RB3LYP) =  -8966.34192901     A.U. after   15 cycles
 SCF Done:  E(RB3LYP) =  -8966.34660752     A.U. after   11 cycles
 SCF Done:  E(RB3LYP) =  -8966.34849468     A.U. after   13 cycles
 SCF Done:  E(RB3LYP) =  -8966.34904716     A.U. after   12 cycles
 SCF Done:  E(RB3LYP) =  -8966.34896400     A.U. after   12 cycles
 SCF Done:  E(RB3LYP) =  -8966.34911476     A.U. after    9 cycles
 SCF Done:  E(RB3LYP) =  -8966.34915928     A.U. after   12 cycles
 SCF Done:  E(RB3LYP) =  -8966.34915358     A.U. after   10 cycles
 SCF Done:  E(RB3LYP) =  -8966.34914817     A.U. after   10 cycles
 SCF Done:  E(RB3LYP) =  -8966.34914854     A.U. after   10 cycles
 Optimization completed.
    -- Stationary point found.
 Normal termination of Gaussian 09 at Wed Aug 18 04:42:38 2021.

 ------------------------------------------------------------------
 #N Geom=AllCheck Guess=TCheck SCRF=Check GenChk RB3LYP/ChkBas Freq
 ------------------------------------------------------------------

 Structure from the checkpoint file:  "/home/scr/diego/Gau-17889.chk"
 ------------
 Estrutura 32
 ------------
 Charge = -2 Multiplicity = 1

                         Standard orientation:
 ---------------------------------------------------------------------
 Center     Atomic      Atomic             Coordinates (Angstroms)
 Number     Number       Type             X           Y           Z
 ---------------------------------------------------------------------
      1         78           0       -0.105971   -0.001173    0.296661
      2         35           0       -0.325337    1.790476   -1.508913
      3         35           0        2.495341    0.024020    0.016883
      4         17           0        0.042785    1.705090    2.010236
      5         17           0        0.084439   -1.707713    2.005816
      6         35           0       -0.289184   -1.793972   -1.511962
      7          7           0       -2.205054   -0.021326    0.545406
      8          8           0       -2.779436    1.046045    0.616296
      9          8           0       -2.756868   -1.100161    0.622382
 ---------------------------------------------------------------------

 SCF Done:  E(RB3LYP) =  -8966.34914854     A.U. after    1 cycles

 The electronic state is 1-A.
 Alpha  occ. eigenvalues -- -482.74944-482.74941-482.73346-101.45026-101.45017
 Alpha  occ. eigenvalues --  -62.43053 -62.43050 -62.41455 -56.26256 -56.26253
 Alpha  occ. eigenvalues --  -56.25956 -56.25953 -56.25951 -56.25948 -56.24619
 Alpha  occ. eigenvalues --  -56.24376 -56.24375 -19.16060 -19.16056 -14.53232
 Alpha  occ. eigenvalues --   -9.40196  -9.40191  -8.64765  -8.64762  -8.63154
 Alpha  occ. eigenvalues --   -7.17004  -7.17000  -7.16183  -7.16178  -7.16173
 Alpha  occ. eigenvalues --   -7.16168  -6.47955  -6.47952  -6.46901  -6.46898
 Alpha  occ. eigenvalues --   -6.46886  -6.46883  -6.46210  -6.45354  -6.45353
 Alpha  occ. eigenvalues --   -4.00851  -2.59394  -2.59392  -2.59108  -2.59105
 Alpha  occ. eigenvalues --   -2.59096  -2.59093  -2.58269  -2.58269  -2.58266
 Alpha  occ. eigenvalues --   -2.58266  -2.57677  -2.57440  -2.57440  -2.56768
 Alpha  occ. eigenvalues --   -2.56768  -2.21894  -2.21847  -2.21835  -1.20575
 Alpha  occ. eigenvalues --   -1.03665  -0.75697  -0.74607  -0.72343  -0.71605
 Alpha  occ. eigenvalues --   -0.70369  -0.62950  -0.53195  -0.51792  -0.50152
 Alpha  occ. eigenvalues --   -0.39324  -0.39095  -0.37553  -0.36804  -0.36046
 Alpha  occ. eigenvalues --   -0.34462  -0.31417  -0.31246  -0.30886  -0.28169
 Alpha  occ. eigenvalues --   -0.28063  -0.26239  -0.26210  -0.26150  -0.25349
 Alpha  occ. eigenvalues --   -0.25241  -0.25038  -0.24569  -0.24042  -0.23866
 Alpha  occ. eigenvalues --   -0.23767
 Alpha virt. eigenvalues --   -0.11713  -0.10307  -0.04635   0.05448   0.05796
 Alpha virt. eigenvalues --    0.05870   0.07713   0.21443   0.21983   0.22699
 Alpha virt. eigenvalues --    0.29956   0.35246   0.35311   0.36083   0.38994

 Mulliken charges:
               1
     1  Pt  -0.431953
     2  Br  -0.199355
     3  Br  -0.293205
     4  Cl  -0.261312
     5  Cl  -0.261269
     6  Br  -0.199461
     7  N    0.148712
     8  O   -0.251008
     9  O   -0.251150
 Sum of Mulliken charges =  -2.00000

 Dipole moment (field-independent basis, Debye):
    X=              0.0797    Y=              0.0056    Z=             -2.8663  Tot=              2.8674
 Quadrupole moment (field-independent basis, Debye-Ang):
   XX=           -154.1519   YY=           -150.7196   ZZ=           -147.2568
   XY=             -0.0151   XZ=              1.0405   YZ=              0.0258

  Exact polarizability: 224.562  -0.171 222.099  -3.358  -0.065 208.144
 Approx polarizability: 322.774  -0.442 329.438  -6.416  -0.158 293.436

                      1                      2                      3
                      A                      A                      A
 Frequencies --     48.4623                75.9966                81.8076
 Red. masses --     21.6729                50.9270                61.2906
 Frc consts  --      0.0300                 0.1733                 0.2417
 IR Inten    --      0.0232                 0.0141                 0.3545

                      4                      5                      6
                      A                      A                      A
 Frequencies --     90.7429                97.4321               108.7721
 Red. masses --     69.5454                27.8320                34.4205
 Frc consts  --      0.3374                 0.1557                 0.2399
 IR Inten    --      1.6894                 0.4910                 1.2761

                      7                      8                      9
                      A                      A                      A
 Frequencies --    116.6938               126.2199               130.7880
 Red. masses --     27.1411                27.1893                37.0054
 Frc consts  --      0.2178                 0.2552                 0.3730
 IR Inten    --      1.6461                 1.3515                 1.2238

                     10                     11                     12
                      A                      A                      A
 Frequencies --    136.0799               176.1627               193.4116
 Red. masses --     32.2756                67.2650                69.7225
 Frc consts  --      0.3521                 1.2299                 1.5367
 IR Inten    --      2.2976                28.7863                 8.0625

                     13                     14                     15
                      A                      A                      A
 Frequencies --    201.2313               260.2685               282.7251
 Red. masses --     83.1945                18.7020                32.0509
 Frc consts  --      1.9849                 0.7464                 1.5094
 IR Inten    --     16.4235                39.9199                62.2533

                     16                     17                     18
                      A                      A                      A
 Frequencies --    296.1407               329.1185               601.8008
 Red. masses --     39.1648                18.5884                14.4383
 Frc consts  --      2.0237                 1.1863                 3.0809
 IR Inten    --     77.3696                 7.9245                18.6686

                     19                     20                     21
                      A                      A                      A
 Frequencies --    831.6809              1402.1458              1640.2656
 Red. masses --     15.2841                15.1379                14.6413
 Frc consts  --      6.2288                17.5348                23.2090
 IR Inten    --    289.4791              1001.8374               538.5767

 - Thermochemistry -
 -------------------
 Temperature   298.150 Kelvin.  Pressure   1.00000 Atm.
 Atom     1 has atomic number 78 and mass 194.96480

 Molecular mass:   547.65042 amu.
 Principal axes and moments of inertia in atomic units:
                           1         2         3
     Eigenvalues --  5080.144815346.790125605.67992
           X            0.99853   0.00122  -0.05413
           Y           -0.00129   1.00000  -0.00133
           Z            0.05413   0.00140   0.99853
 This molecule is an asymmetric top.
 Rotational symmetry number  1.
 Warning -- assumption of classical behavior for rotation
           may cause significant error
 Rotational temperatures (Kelvin)      0.01705     0.01620     0.01545
 Rotational constants (GHZ):           0.35525     0.33754     0.32195
 Zero-point vibrational energy      43232.7 (Joules/Mol)
                                   10.33287 (Kcal/Mol)
 Warning -- explicit consideration of  18 degrees of freedom as
           vibrations may cause significant error
 Vibrational temperatures:     69.73   109.34   117.70   130.56   140.18
          (Kelvin)            156.50   167.90   181.60   188.17   195.79
                              253.46   278.28   289.53   374.47   406.78
                              426.08   473.53   865.86  1196.60  2017.37
                             2359.97

 Zero-point correction=                           0.016466 (Hartree/Particle)
 Thermal correction to Energy=                    0.030325
 Thermal correction to Enthalpy=                  0.031269
 Thermal correction to Gibbs Free Energy=        -0.028835
 Sum of electronic and zero-point Energies=          -8966.332682
 Sum of electronic and thermal Energies=             -8966.318824
 Sum of electronic and thermal Enthalpies=           -8966.317879
 Sum of electronic and thermal Free Energies=        -8966.377984

                     E (Thermal)             CV                S
                      KCal/Mol        Cal/Mol-Kelvin    Cal/Mol-Kelvin
 Total                   19.029             39.504            126.501
 Electronic               0.000              0.000              0.000
 Translational            0.889              2.981             44.787
 Rotational               0.889              2.981             33.387
 Vibrational             17.252             33.543             48.327
 Vibration     1          0.595              1.978              4.879
 Vibration     2          0.599              1.965              3.992
 Vibration     3          0.600              1.962              3.847
 Vibration     4          0.602              1.956              3.644
 Vibration     5          0.603              1.951              3.505
 Vibration     6          0.606              1.942              3.291
 Vibration     7          0.608              1.936              3.154
 Vibration     8          0.611              1.927              3.003
 Vibration     9          0.612              1.923              2.934
 Vibration    10          0.614              1.917              2.858
 Vibration    11          0.628              1.872              2.369
 Vibration    12          0.635              1.849              2.195
 Vibration    13          0.638              1.838              2.122
 Vibration    14          0.668              1.745              1.660
 Vibration    15          0.682              1.706              1.517
 Vibration    16          0.690              1.681              1.439
 Vibration    17          0.712              1.617              1.264
 Vibration    18          0.960              1.028              0.447

 Normal termination of Gaussian 09 at Wed Aug 18 04:44:35 2021.
