 Gaussian 09, Revision D.01,
 Gaussian 09:  EM64L-G09RevD.01 24-Apr-2013

 ------------------------------------------------------------
 #b3lyp/gen pseudo=read opt freq=noraman scrf=(solvent=water)
 ------------------------------------------------------------

 ------------
 Estrutura 33
 ------------
 Symbolic Z-matrix:
 Charge = -2 Multiplicity = 1

 SCF Done:  E(RB3LYP) =  -8966.03875363     A.U. after   18 cycles
 SCF Done:  E(RB3LYP) =  -8966.15531355     A.U. after   14 cycles
 SCF Done:  E(RB3LYP) =  -8966.27518047     A.U. after   15 cycles
 SCF Done:  E(RB3LYP) =  -8966.33543415     A.U. after   16 cycles
 SCF Done:  E(RB3LYP) =  -8966.34007292     A.U. after   15 cycles
 SCF Done:  E(RB3LYP) =  -8966.34242041     A.U. after   15 cycles
 SCF Done:  E(RB3LYP) =  -8966.34576778     A.U. after   14 cycles
 SCF Done:  E(RB3LYP) =  -8966.34709959     A.U. after   12 cycles
 SCF Done:  E(RB3LYP) =  -8966.34758390     A.U. after   12 cycles
 SCF Done:  E(RB3LYP) =  -8966.34786727     A.U. after   12 cycles
 SCF Done:  E(RB3LYP) =  -8966.34849054     A.U. after   12 cycles
 SCF Done:  E(RB3LYP) =  -8966.34884143     A.U. after   13 cycles
 SCF Done:  E(RB3LYP) =  -8966.34907139     A.U. after   12 cycles
 SCF Done:  E(RB3LYP) =  -8966.34915650     A.U. after   11 cycles
 SCF Done:  E(RB3LYP) =  -8966.34926798     A.U. after   13 cycles
 SCF Done:  E(RB3LYP) =  -8966.34931927     A.U. after   11 cycles
 SCF Done:  E(RB3LYP) =  -8966.34935303     A.U. after   11 cycles
 SCF Done:  E(RB3LYP) =  -8966.34935358     A.U. after   10 cycles
 SCF Done:  E(RB3LYP) =  -8966.34935388     A.U. after   10 cycles
 Optimization completed.
    -- Stationary point found.
 Normal termination of Gaussian 09 at Wed Aug 18 04:56:22 2021.

 ------------------------------------------------------------------
 #N Geom=AllCheck Guess=TCheck SCRF=Check GenChk RB3LYP/ChkBas Freq
 ------------------------------------------------------------------

 Structure from the checkpoint file:  "/home/scr/diego/Gau-19262.chk"
 ------------
 Estrutura 33
 ------------
 Charge = -2 Multiplicity = 1

                         Standard orientation:
 ---------------------------------------------------------------------
 Center     Atomic      Atomic             Coordinates (Angstroms)
 Number     Number       Type             X           Y           Z
 ---------------------------------------------------------------------
      1         78           0        0.000433    0.134486    0.000010
      2         35           0        2.563256    0.154568    0.059082
      3         35           0       -0.005975   -2.483586    0.000453
      4         17           0       -0.018061    0.133773    2.412946
      5         35           0       -2.561586    0.163369   -0.058628
      6         17           0        0.018961    0.131013   -2.413189
      7          7           0        0.004002    2.248522   -0.000929
      8          8           0       -0.677277    2.818068    0.827037
      9          8           0        0.686470    2.815280   -0.829774
 ---------------------------------------------------------------------

 SCF Done:  E(RB3LYP) =  -8966.34935388     A.U. after    1 cycles

 The electronic state is 1-A.
 Alpha  occ. eigenvalues -- -482.74898-482.74893-482.73337-101.45136-101.45133
 Alpha  occ. eigenvalues --  -62.43007 -62.43002 -62.41446 -56.26208 -56.26203
 Alpha  occ. eigenvalues --  -56.25910 -56.25907 -56.25906 -56.25902 -56.24611
 Alpha  occ. eigenvalues --  -56.24367 -56.24366 -19.16074 -19.16071 -14.53261
 Alpha  occ. eigenvalues --   -9.40311  -9.40306  -8.64717  -8.64712  -8.63145
 Alpha  occ. eigenvalues --   -7.17125  -7.17122  -7.16293  -7.16290  -7.16283
 Alpha  occ. eigenvalues --   -7.16279  -6.47898  -6.47892  -6.46857  -6.46852
 Alpha  occ. eigenvalues --   -6.46843  -6.46838  -6.46202  -6.45346  -6.45343
 Alpha  occ. eigenvalues --   -4.00871  -2.59339  -2.59333  -2.59056  -2.59051
 Alpha  occ. eigenvalues --   -2.59045  -2.59039  -2.58228  -2.58227  -2.58223
 Alpha  occ. eigenvalues --   -2.58223  -2.57668  -2.57432  -2.57430  -2.56759
 Alpha  occ. eigenvalues --   -2.56758  -2.22006  -2.21856  -2.21779  -1.20604
 Alpha  occ. eigenvalues --   -1.03684  -0.75903  -0.74676  -0.72240  -0.71578
 Alpha  occ. eigenvalues --   -0.70357  -0.62969  -0.53213  -0.51818  -0.50168
 Alpha  occ. eigenvalues --   -0.39844  -0.38563  -0.37597  -0.36977  -0.35906
 Alpha  occ. eigenvalues --   -0.34472  -0.31615  -0.31264  -0.30938  -0.28235
 Alpha  occ. eigenvalues --   -0.28169  -0.26322  -0.26005  -0.25749  -0.25517
 Alpha  occ. eigenvalues --   -0.25416  -0.25008  -0.24492  -0.24188  -0.24062
 Alpha  occ. eigenvalues --   -0.23658
 Alpha virt. eigenvalues --   -0.11839  -0.10207  -0.04654   0.05347   0.05804
 Alpha virt. eigenvalues --    0.05953   0.07789   0.21475   0.21578   0.22826
 Alpha virt. eigenvalues --    0.29926   0.34573   0.35161   0.36465   0.37613

 Mulliken charges:
               1
     1  Pt  -0.423581
     2  Br  -0.209748
     3  Br  -0.293073
     4  Cl  -0.255522
     5  Br  -0.209282
     6  Cl  -0.255579
     7  N    0.148367
     8  O   -0.250804
     9  O   -0.250778
 Sum of Mulliken charges =  -2.00000

 Dipole moment (field-independent basis, Debye):
    X=             -0.0039    Y=             -0.3668    Z=              0.0014  Tot=              0.3668
 Quadrupole moment (field-independent basis, Debye-Ang):
   XX=           -148.3934   YY=           -154.3140   ZZ=           -148.6852
   XY=             -0.0131   XZ=              2.1090   YZ=             -0.0026

  Exact polarizability: 247.092   0.022 225.522  -4.826   0.018 189.060
 Approx polarizability: 347.928   0.056 324.288 -15.763   0.055 280.837

                      1                      2                      3
                      A                      A                      A
 Frequencies --     58.9790                74.9494                79.2151
 Red. masses --     21.8229                48.5704                73.5775
 Frc consts  --      0.0447                 0.1608                 0.2720
 IR Inten    --      0.1989                 0.5410                 0.4040

                      4                      5                      6
                      A                      A                      A
 Frequencies --     97.1364               108.0280               108.1254
 Red. masses --     34.4254                33.1280                37.2694
 Frc consts  --      0.1914                 0.2278                 0.2567
 IR Inten    --      1.7606                 0.2386                 0.0739

                      7                      8                      9
                      A                      A                      A
 Frequencies --    113.2388               129.3947               139.2214
 Red. masses --     30.3480                34.8670                23.9477
 Frc consts  --      0.2293                 0.3440                 0.2735
 IR Inten    --      0.9608                 2.0951                 1.6600

                     10                     11                     12
                      A                      A                      A
 Frequencies --    141.5660               170.5024               178.6775
 Red. masses --     40.2513                67.8576                74.2434
 Frc consts  --      0.4753                 1.1623                 1.3965
 IR Inten    --      3.7844                 8.0831                21.9462

                     13                     14                     15
                      A                      A                      A
 Frequencies --    212.6917               257.3340               296.2950
 Red. masses --     90.0084                18.7901                34.1272
 Frc consts  --      2.3990                 0.7331                 1.7652
 IR Inten    --     59.0731                38.3692                 0.8694

                     16                     17                     18
                      A                      A                      A
 Frequencies --    298.0593               331.0426               600.8207
 Red. masses --     26.9613                21.8201                14.4369
 Frc consts  --      1.4112                 1.4089                 3.0705
 IR Inten    --     68.8278                26.4477                19.2246

                     19                     20                     21
                      A                      A                      A
 Frequencies --    833.4422              1403.1064              1641.0233
 Red. masses --     15.2807                15.1392                14.6428
 Frc consts  --      6.2538                17.5604                23.2330
 IR Inten    --    291.1104               993.5847               536.2919

 - Thermochemistry -
 -------------------
 Temperature   298.150 Kelvin.  Pressure   1.00000 Atm.
 Atom     1 has atomic number 78 and mass 194.96480

 Molecular mass:   547.65042 amu.
 Principal axes and moments of inertia in atomic units:
                           1         2         3
     Eigenvalues --  4462.048375288.737416681.60554
           X            0.99999   0.00028  -0.00420
           Y           -0.00028   1.00000   0.00002
           Z            0.00420  -0.00002   0.99999
 This molecule is an asymmetric top.
 Rotational symmetry number  1.
 Warning -- assumption of classical behavior for rotation
           may cause significant error
 Rotational temperatures (Kelvin)      0.01941     0.01638     0.01296
 Rotational constants (GHZ):           0.40446     0.34124     0.27011
 Zero-point vibrational energy      43501.3 (Joules/Mol)
                                   10.39706 (Kcal/Mol)
 Warning -- explicit consideration of  18 degrees of freedom as
           vibrations may cause significant error
 Vibrational temperatures:     84.86   107.84   113.97   139.76   155.43
          (Kelvin)            155.57   162.93   186.17   200.31   203.68
                              245.31   257.08   306.02   370.25   426.30
                              428.84   476.30   864.45  1199.14  2018.75
                             2361.06

 Zero-point correction=                           0.016569 (Hartree/Particle)
 Thermal correction to Energy=                    0.030355
 Thermal correction to Enthalpy=                  0.031299
 Thermal correction to Gibbs Free Energy=        -0.028453
 Sum of electronic and zero-point Energies=          -8966.332785
 Sum of electronic and thermal Energies=             -8966.318999
 Sum of electronic and thermal Enthalpies=           -8966.318055
 Sum of electronic and thermal Free Energies=        -8966.377807

                     E (Thermal)             CV                S
                      KCal/Mol        Cal/Mol-Kelvin    Cal/Mol-Kelvin
 Total                   19.048             39.457            125.758
 Electronic               0.000              0.000              0.000
 Translational            0.889              2.981             44.787
 Rotational               0.889              2.981             33.422
 Vibrational             17.270             33.496             47.550
 Vibration     1          0.596              1.974              4.491
 Vibration     2          0.599              1.966              4.019
 Vibration     3          0.600              1.963              3.910
 Vibration     4          0.603              1.951              3.511
 Vibration     5          0.606              1.943              3.304
 Vibration     6          0.606              1.943              3.302
 Vibration     7          0.607              1.938              3.213
 Vibration     8          0.612              1.924              2.955
 Vibration     9          0.615              1.914              2.815
 Vibration    10          0.615              1.912              2.783
 Vibration    11          0.626              1.879              2.430
 Vibration    12          0.629              1.869              2.342
 Vibration    13          0.644              1.822              2.020
 Vibration    14          0.667              1.750              1.680
 Vibration    15          0.690              1.681              1.438
 Vibration    16          0.691              1.677              1.428
 Vibration    17          0.713              1.614              1.255
 Vibration    18          0.959              1.030              0.448

 Optimization completed.
    -- Stationary point found.
 Normal termination of Gaussian 09 at Wed Aug 18 04:58:19 2021.
