 Gaussian 09, Revision D.01,
 Gaussian 09:  EM64L-G09RevD.01 24-Apr-2013

 ------------------------------------------------------------
 #b3lyp/gen pseudo=read opt freq=noraman scrf=(solvent=water)
 ------------------------------------------------------------

 ------------
 Estrutura 35
 ------------
 Symbolic Z-matrix:
 Charge = -2 Multiplicity = 1

 SCF Done:  E(RB3LYP) =  -11079.7793720     A.U. after   18 cycles
 SCF Done:  E(RB3LYP) =  -11079.9172578     A.U. after   15 cycles
 SCF Done:  E(RB3LYP) =  -11080.0643308     A.U. after   15 cycles
 SCF Done:  E(RB3LYP) =  -11080.0960875     A.U. after   15 cycles
 SCF Done:  E(RB3LYP) =  -11080.1400602     A.U. after   15 cycles
 SCF Done:  E(RB3LYP) =  -11080.1497860     A.U. after   15 cycles
 SCF Done:  E(RB3LYP) =  -11080.1527837     A.U. after   14 cycles
 SCF Done:  E(RB3LYP) =  -11080.1554125     A.U. after   12 cycles
 SCF Done:  E(RB3LYP) =  -11080.1566729     A.U. after   14 cycles
 SCF Done:  E(RB3LYP) =  -11080.1570114     A.U. after   12 cycles
 SCF Done:  E(RB3LYP) =  -11080.1572060     A.U. after   14 cycles
 SCF Done:  E(RB3LYP) =  -11080.1572842     A.U. after   12 cycles
 SCF Done:  E(RB3LYP) =  -11080.1572859     A.U. after   11 cycles
 SCF Done:  E(RB3LYP) =  -11080.1572813     A.U. after   10 cycles
 SCF Done:  E(RB3LYP) =  -11080.1572761     A.U. after   10 cycles
 SCF Done:  E(RB3LYP) =  -11080.1572786     A.U. after   10 cycles
 SCF Done:  E(RB3LYP) =  -11080.1572815     A.U. after    9 cycles
 SCF Done:  E(RB3LYP) =  -11080.1572909     A.U. after   10 cycles
 SCF Done:  E(RB3LYP) =  -11080.1572946     A.U. after    9 cycles
 Optimization completed.
    -- Stationary point found.
 Normal termination of Gaussian 09 at Wed Aug 18 05:11:37 2021.

 ------------------------------------------------------------------
 #N Geom=AllCheck Guess=TCheck SCRF=Check GenChk RB3LYP/ChkBas Freq
 ------------------------------------------------------------------

 Structure from the checkpoint file:  "/home/scr/diego/Gau-21009.chk"
 ------------
 Estrutura 35
 ------------
 Charge = -2 Multiplicity = 1

                         Standard orientation:
 ---------------------------------------------------------------------
 Center     Atomic      Atomic             Coordinates (Angstroms)
 Number     Number       Type             X           Y           Z
 ---------------------------------------------------------------------
      1         78           0       -0.000975   -0.103271    0.198590
      2         35           0       -0.027490   -0.381842   -2.339565
      3         35           0        0.061785    2.495939   -0.083156
      4         35           0       -2.565709   -0.074154    0.258479
      5         35           0        2.562261   -0.188039    0.131946
      6         17           0        0.018861    0.174734    2.607503
      7          7           0       -0.047835   -2.204185    0.444224
      8          8           0       -0.793399   -2.845638   -0.268372
      9          8           0        0.669729   -2.692199    1.293777
 ---------------------------------------------------------------------

 SCF Done:  E(RB3LYP) =  -11080.1572946     A.U. after    1 cycles

 The electronic state is 1-A.
 Alpha  occ. eigenvalues -- -482.74933-482.74876-482.74863-482.73388-101.45018
 Alpha  occ. eigenvalues --  -62.43040 -62.42982 -62.42970 -62.41495 -56.26244
 Alpha  occ. eigenvalues --  -56.26183 -56.26171 -56.25943 -56.25938 -56.25886
 Alpha  occ. eigenvalues --  -56.25882 -56.25873 -56.25869 -56.24660 -56.24416
 Alpha  occ. eigenvalues --  -56.24415 -19.16041 -19.16027 -14.53214  -9.40183
 Alpha  occ. eigenvalues --   -8.64751  -8.64690  -8.64678  -8.63194  -7.16992
 Alpha  occ. eigenvalues --   -7.16171  -7.16161  -6.47943  -6.47872  -6.47860
 Alpha  occ. eigenvalues --   -6.46887  -6.46871  -6.46830  -6.46819  -6.46816
 Alpha  occ. eigenvalues --   -6.46803  -6.46252  -6.45393  -6.45390  -4.00675
 Alpha  occ. eigenvalues --   -2.59382  -2.59312  -2.59300  -2.59095  -2.59083
 Alpha  occ. eigenvalues --   -2.59030  -2.59018  -2.59018  -2.59005  -2.58254
 Alpha  occ. eigenvalues --   -2.58253  -2.58201  -2.58201  -2.58189  -2.58188
 Alpha  occ. eigenvalues --   -2.57718  -2.57482  -2.57480  -2.56805  -2.56805
 Alpha  occ. eigenvalues --   -2.21735  -2.21715  -2.21609  -1.20539  -1.03613
 Alpha  occ. eigenvalues --   -0.75246  -0.72669  -0.71593  -0.71526  -0.70380
 Alpha  occ. eigenvalues --   -0.62923  -0.53160  -0.51760  -0.50125  -0.39161
 Alpha  occ. eigenvalues --   -0.38489  -0.37202  -0.36626  -0.35800  -0.34446
 Alpha  occ. eigenvalues --   -0.31241  -0.31172  -0.30593  -0.28043  -0.27777
 Alpha  occ. eigenvalues --   -0.25995  -0.25766  -0.25502  -0.25288  -0.25108
 Alpha  occ. eigenvalues --   -0.24958  -0.24504  -0.23810  -0.23752  -0.23643
 Alpha virt. eigenvalues --   -0.12017  -0.10408  -0.04645   0.05365   0.05655
 Alpha virt. eigenvalues --    0.05847   0.07357   0.20817   0.20918   0.21936
 Alpha virt. eigenvalues --    0.29537   0.34087   0.34441   0.35287   0.36674

 Mulliken charges:
               1
     1  Pt  -0.486959
     2  Br  -0.195670
     3  Br  -0.289077
     4  Br  -0.207390
     5  Br  -0.208015
     6  Cl  -0.260071
     7  N    0.149325
     8  O   -0.251520
     9  O   -0.250624
 Sum of Mulliken charges =  -2.00000

 Dipole moment (field-independent basis, Debye):
    X=             -0.0193    Y=              0.1138    Z=             -1.9175  Tot=              1.9210
 Quadrupole moment (field-independent basis, Debye-Ang):
   XX=           -154.8915   YY=           -160.3527   ZZ=           -155.3010
   XY=             -0.4232   XZ=             -2.0650   YZ=              0.6883

  Exact polarizability: 253.717   0.528 230.580   4.473  -1.635 221.625
 Approx polarizability: 359.056   2.188 331.716  15.272  -2.467 321.299

                      1                      2                      3
                      A                      A                      A
 Frequencies --     47.0241                64.7011                75.5742
 Red. masses --     26.5766                44.1940                61.6345
 Frc consts  --      0.0346                 0.1090                 0.2074
 IR Inten    --      0.1011                 0.7655                 0.0513

                      4                      5                      6
                      A                      A                      A
 Frequencies --     83.7509                90.6241                98.8309
 Red. masses --     68.0040                44.0486                38.3581
 Frc consts  --      0.2810                 0.2131                 0.2207
 IR Inten    --      1.2374                 1.1185                 2.1304

                      7                      8                      9
                      A                      A                      A
 Frequencies --    103.6926               117.2048               126.8350
 Red. masses --     25.8980                30.2547                32.8735
 Frc consts  --      0.1641                 0.2449                 0.3116
 IR Inten    --      1.1416                 1.7295                 1.5318

                     10                     11                     12
                      A                      A                      A
 Frequencies --    137.8920               170.7395               177.6651
 Red. masses --     31.9988                70.1352                76.3235
 Frc consts  --      0.3585                 1.2046                 1.4194
 IR Inten    --      2.4996                 9.5407                19.5462

                     13                     14                     15
                      A                      A                      A
 Frequencies --    197.6787               210.1542               258.4483
 Red. masses --     76.2260                91.8385                18.7316
 Frc consts  --      1.7550                 2.3897                 0.7372
 IR Inten    --     12.4697                58.1755                38.3619

                     16                     17                     18
                      A                      A                      A
 Frequencies --    286.3877               326.7314               602.0497
 Red. masses --     33.5411                18.1642                14.4341
 Frc consts  --      1.6208                 1.1425                 3.0825
 IR Inten    --     66.5931                 6.3341                19.4898

                     19                     20                     21
                      A                      A                      A
 Frequencies --    831.7770              1401.3628              1638.0002
 Red. masses --     15.2855                15.1353                14.6419
 Frc consts  --      6.2308                17.5123                23.1460
 IR Inten    --    286.5261               987.2593               532.2126

 - Thermochemistry -
 -------------------
 Temperature   298.150 Kelvin.  Pressure   1.00000 Atm.
 Atom     1 has atomic number 78 and mass 194.96480

 Molecular mass:   591.59990 amu.
 Principal axes and moments of inertia in atomic units:
                           1         2         3
     Eigenvalues --  5491.915386321.417686707.52909
           X            0.99996   0.00538   0.00668
           Y           -0.00503   0.99867  -0.05128
           Z           -0.00694   0.05125   0.99866
 This molecule is an asymmetric top.
 Rotational symmetry number  1.
 Warning -- assumption of classical behavior for rotation
           may cause significant error
 Rotational temperatures (Kelvin)      0.01577     0.01370     0.01291
 Rotational constants (GHZ):           0.32862     0.28550     0.26906
 Zero-point vibrational energy      42151.2 (Joules/Mol)
                                   10.07437 (Kcal/Mol)
 Warning -- explicit consideration of  18 degrees of freedom as
           vibrations may cause significant error
 Vibrational temperatures:     67.66    93.09   108.73   120.50   130.39
          (Kelvin)            142.20   149.19   168.63   182.49   198.40
                              245.66   255.62   284.42   302.36   371.85
                              412.05   470.09   866.21  1196.74  2016.25
                             2356.71

 Zero-point correction=                           0.016055 (Hartree/Particle)
 Thermal correction to Energy=                    0.030202
 Thermal correction to Enthalpy=                  0.031147
 Thermal correction to Gibbs Free Energy=        -0.030350
 Sum of electronic and zero-point Energies=         -11080.141240
 Sum of electronic and thermal Energies=            -11080.127092
 Sum of electronic and thermal Enthalpies=          -11080.126148
 Sum of electronic and thermal Free Energies=       -11080.187645

                     E (Thermal)             CV                S
                      KCal/Mol        Cal/Mol-Kelvin    Cal/Mol-Kelvin
 Total                   18.952             39.731            129.431
 Electronic               0.000              0.000              0.000
 Translational            0.889              2.981             45.017
 Rotational               0.889              2.981             33.809
 Vibrational             17.175             33.769             50.605
 Vibration     1          0.595              1.979              4.939
 Vibration     2          0.597              1.971              4.308
 Vibration     3          0.599              1.965              4.003
 Vibration     4          0.601              1.960              3.801
 Vibration     5          0.602              1.956              3.647
 Vibration     6          0.604              1.950              3.477
 Vibration     7          0.605              1.946              3.384
 Vibration     8          0.608              1.935              3.146
 Vibration     9          0.611              1.926              2.993
 Vibration    10          0.614              1.915              2.833
 Vibration    11          0.626              1.879              2.427
 Vibration    12          0.628              1.870              2.353
 Vibration    13          0.637              1.843              2.155
 Vibration    14          0.642              1.825              2.042
 Vibration    15          0.667              1.748              1.672
 Vibration    16          0.684              1.699              1.495
 Vibration    17          0.710              1.622              1.276
 Vibration    18          0.960              1.027              0.446

 Optimization completed.
    -- Stationary point found.
 Normal termination of Gaussian 09 at Wed Aug 18 05:13:58 2021.
