 Gaussian 09, Revision D.01,
 Gaussian 09:  EM64L-G09RevD.01 24-Apr-2013

 ------------------------------------------------------------
 #b3lyp/gen pseudo=read opt freq=noraman scrf=(solvent=water)
 ------------------------------------------------------------

 ------------
 Estrutura 36
 ------------
 Symbolic Z-matrix:
 Charge = -2 Multiplicity = 1

 SCF Done:  E(RB3LYP) =  -13193.5877227     A.U. after   18 cycles
 SCF Done:  E(RB3LYP) =  -13193.7256342     A.U. after   15 cycles
 SCF Done:  E(RB3LYP) =  -13193.8727200     A.U. after   14 cycles
 SCF Done:  E(RB3LYP) =  -13193.9047171     A.U. after   15 cycles
 SCF Done:  E(RB3LYP) =  -13193.9483431     A.U. after   15 cycles
 SCF Done:  E(RB3LYP) =  -13193.9581461     A.U. after   15 cycles
 SCF Done:  E(RB3LYP) =  -13193.9611619     A.U. after   13 cycles
 SCF Done:  E(RB3LYP) =  -13193.9636178     A.U. after   13 cycles
 SCF Done:  E(RB3LYP) =  -13193.9646527     A.U. after   13 cycles
 SCF Done:  E(RB3LYP) =  -13193.9650094     A.U. after   12 cycles
 SCF Done:  E(RB3LYP) =  -13193.9653235     A.U. after   10 cycles
 SCF Done:  E(RB3LYP) =  -13193.9653032     A.U. after   10 cycles
 SCF Done:  E(RB3LYP) =  -13193.9653793     A.U. after   10 cycles
 SCF Done:  E(RB3LYP) =  -13193.9652693     A.U. after   10 cycles
 SCF Done:  E(RB3LYP) =  -13193.9652431     A.U. after   11 cycles
 SCF Done:  E(RB3LYP) =  -13193.9653776     A.U. after   11 cycles
 SCF Done:  E(RB3LYP) =  -13193.9653756     A.U. after   10 cycles
 SCF Done:  E(RB3LYP) =  -13193.9653891     A.U. after    9 cycles
 SCF Done:  E(RB3LYP) =  -13193.9653768     A.U. after    9 cycles
 Optimization completed.
    -- Stationary point found.
 Normal termination of Gaussian 09 at Wed Aug 18 05:33:48 2021.

 ------------------------------------------------------------------
 #N Geom=AllCheck Guess=TCheck SCRF=Check GenChk RB3LYP/ChkBas Freq
 ------------------------------------------------------------------

 Structure from the checkpoint file:  "/home/scr/diego/Gau-22694.chk"
 ------------
 Estrutura 36
 ------------
 Charge = -2 Multiplicity = 1

                         Standard orientation:
 ---------------------------------------------------------------------
 Center     Atomic      Atomic             Coordinates (Angstroms)
 Number     Number       Type             X           Y           Z
 ---------------------------------------------------------------------
      1         78           0        0.000110    0.000017    0.119720
      2         35           0        1.855056    1.770449    0.121799
      3         35           0       -0.000681   -0.000016   -2.493766
      4         35           0        1.742286   -1.881571    0.125875
      5         35           0       -1.742528    1.881087    0.126522
      6          7           0        0.000803    0.000423    2.235766
      7          8           0        1.073421   -0.024181    2.805478
      8          8           0       -1.071341    0.025020    2.806368
      9         35           0       -1.855013   -1.770263    0.122904
 ---------------------------------------------------------------------

 SCF Done:  E(RB3LYP) =  -13193.9653768     A.U. after    1 cycles

 The electronic state is 1-A.
 Alpha  occ. eigenvalues -- -482.74857-482.74857-482.74848-482.74847-482.73433
 Alpha  occ. eigenvalues --  -62.42963 -62.42962 -62.42953 -62.42952 -62.41539
 Alpha  occ. eigenvalues --  -56.26164 -56.26163 -56.26154 -56.26154 -56.25866
 Alpha  occ. eigenvalues --  -56.25866 -56.25862 -56.25861 -56.25857 -56.25856
 Alpha  occ. eigenvalues --  -56.25852 -56.25852 -56.24705 -56.24459 -56.24459
 Alpha  occ. eigenvalues --  -19.15994 -19.15990 -14.53179  -8.64671  -8.64669
 Alpha  occ. eigenvalues --   -8.64662  -8.64660  -8.63238  -6.47852  -6.47851
 Alpha  occ. eigenvalues --   -6.47843  -6.47842  -6.46811  -6.46810  -6.46801
 Alpha  occ. eigenvalues --   -6.46801  -6.46795  -6.46794  -6.46785  -6.46785
 Alpha  occ. eigenvalues --   -6.46299  -6.45434  -6.45434  -4.00510  -2.59292
 Alpha  occ. eigenvalues --   -2.59291  -2.59282  -2.59282  -2.59010  -2.59010
 Alpha  occ. eigenvalues --   -2.59001  -2.59001  -2.58998  -2.58998  -2.58989
 Alpha  occ. eigenvalues --   -2.58989  -2.58180  -2.58180  -2.58180  -2.58179
 Alpha  occ. eigenvalues --   -2.58171  -2.58171  -2.58170  -2.58170  -2.57764
 Alpha  occ. eigenvalues --   -2.57526  -2.57526  -2.56847  -2.56847  -2.21600
 Alpha  occ. eigenvalues --   -2.21518  -2.21466  -1.20489  -1.03547  -0.73289
 Alpha  occ. eigenvalues --   -0.71585  -0.71499  -0.71477  -0.70398  -0.62901
 Alpha  occ. eigenvalues --   -0.53121  -0.51718  -0.50087  -0.38481  -0.38468
 Alpha  occ. eigenvalues --   -0.36882  -0.36400  -0.35655  -0.34445  -0.31182
 Alpha  occ. eigenvalues --   -0.30959  -0.30257  -0.27865  -0.27413  -0.25438
 Alpha  occ. eigenvalues --   -0.25284  -0.25266  -0.25183  -0.25056  -0.24956
 Alpha  occ. eigenvalues --   -0.24485  -0.23657  -0.23532  -0.23479
 Alpha virt. eigenvalues --   -0.12197  -0.10538  -0.04640   0.05324   0.05479
 Alpha virt. eigenvalues --    0.05755   0.07125   0.20227   0.20288   0.20982
 Alpha virt. eigenvalues --    0.29010   0.33145   0.34084   0.34235   0.35375

 Mulliken charges:
               1
     1  Pt  -0.545499
     2  Br  -0.204157
     3  Br  -0.283940
     4  Br  -0.204353
     5  Br  -0.204275
     6  N    0.149307
     7  O   -0.251469
     8  O   -0.251497
     9  Br  -0.204118
 Sum of Mulliken charges =  -2.00000

 Dipole moment (field-independent basis, Debye):
    X=             -0.0009    Y=              0.0003    Z=             -0.3166  Tot=              0.3166
 Quadrupole moment (field-independent basis, Debye-Ang):
   XX=           -163.3105   YY=           -159.0668   ZZ=           -166.5821
   XY=              0.0884   XZ=             -0.0017   YZ=             -0.0008

  Exact polarizability: 264.442  -0.175 254.043   0.000   0.002 236.263
 Approx polarizability: 383.985  -0.610 350.949  -0.001   0.006 340.040

                      1                      2                      3
                      A                      A                      A
 Frequencies --     44.7626                73.2275                78.2141
 Red. masses --     28.2777                55.3353                74.4985
 Frc consts  --      0.0334                 0.1748                 0.2685
 IR Inten    --      0.0005                 0.5438                 0.1974

                      4                      5                      6
                      A                      A                      A
 Frequencies --     83.6173                89.1412                89.7532
 Red. masses --     78.3672                49.0879                25.7831
 Frc consts  --      0.3228                 0.2298                 0.1224
 IR Inten    --      0.0017                 0.9341                 0.0117

                      7                      8                      9
                      A                      A                      A
 Frequencies --     97.1520               108.8738               113.6318
 Red. masses --     50.0640                73.1008                24.8524
 Frc consts  --      0.2784                 0.5105                 0.1891
 IR Inten    --      2.3316                 3.6438                 2.3951

                     10                     11                     12
                      A                      A                      A
 Frequencies --    117.5002               172.1705               172.5336
 Red. masses --     25.8554                71.3111                74.3641
 Frc consts  --      0.2103                 1.2454                 1.3042
 IR Inten    --      1.1222                10.3049                 5.3875

                     13                     14                     15
                      A                      A                      A
 Frequencies --    184.2509               208.0839               212.3140
 Red. masses --     81.7356                73.1262               108.5134
 Frc consts  --      1.6349                 1.8655                 2.8820
 IR Inten    --     14.9671                49.3102                62.8146

                     16                     17                     18
                      A                      A                      A
 Frequencies --    256.1475               317.9444               600.3767
 Red. masses --     18.7612                17.1982                14.4341
 Frc consts  --      0.7253                 1.0243                 3.0654
 IR Inten    --     37.5232                 0.8684                19.9217

                     19                     20                     21
                      A                      A                      A
 Frequencies --    832.2373              1400.4225              1635.2992
 Red. masses --     15.2862                15.1338                14.6420
 Frc consts  --      6.2380                17.4871                23.0699
 IR Inten    --    287.2722               972.4465               527.3432

 - Thermochemistry -
 -------------------
 Temperature   298.150 Kelvin.  Pressure   1.00000 Atm.
 Atom     1 has atomic number 78 and mass 194.96480

 Molecular mass:   635.54938 amu.
 Principal axes and moments of inertia in atomic units:
                           1         2         3
     Eigenvalues --  6689.995266710.602097543.76614
           X            0.99983  -0.01869   0.00005
           Y            0.01869   0.99983   0.00003
           Z           -0.00005  -0.00003   1.00000
 This molecule is an asymmetric top.
 Rotational symmetry number  1.
 Warning -- assumption of classical behavior for rotation
           may cause significant error
 Rotational temperatures (Kelvin)      0.01295     0.01291     0.01148
 Rotational constants (GHZ):           0.26977     0.26894     0.23924
 Zero-point vibrational energy      41197.3 (Joules/Mol)
                                    9.84640 (Kcal/Mol)
 Warning -- explicit consideration of  18 degrees of freedom as
           vibrations may cause significant error
 Vibrational temperatures:     64.40   105.36   112.53   120.31   128.25
          (Kelvin)            129.13   139.78   156.64   163.49   169.06
                              247.71   248.24   265.10   299.39   305.47
                              368.54   457.45   863.81  1197.40  2014.89
                             2352.83

 Zero-point correction=                           0.015691 (Hartree/Particle)
 Thermal correction to Energy=                    0.030081
 Thermal correction to Enthalpy=                  0.031025
 Thermal correction to Gibbs Free Energy=        -0.031500
 Sum of electronic and zero-point Energies=         -13193.949686
 Sum of electronic and thermal Energies=            -13193.935296
 Sum of electronic and thermal Enthalpies=          -13193.934352
 Sum of electronic and thermal Free Energies=       -13193.996877

                     E (Thermal)             CV                S
                      KCal/Mol        Cal/Mol-Kelvin    Cal/Mol-Kelvin
 Total                   18.876             39.950            131.596
 Electronic               0.000              0.000              0.000
 Translational            0.889              2.981             45.231
 Rotational               0.889              2.981             34.181
 Vibrational             17.099             33.988             52.184
 Vibration     1          0.595              1.979              5.036
 Vibration     2          0.599              1.967              4.065
 Vibration     3          0.600              1.964              3.935
 Vibration     4          0.601              1.960              3.804
 Vibration     5          0.602              1.957              3.679
 Vibration     6          0.602              1.956              3.665
 Vibration     7          0.603              1.951              3.511
 Vibration     8          0.606              1.942              3.289
 Vibration     9          0.607              1.938              3.206
 Vibration    10          0.608              1.935              3.141
 Vibration    11          0.626              1.877              2.412
 Vibration    12          0.626              1.876              2.408
 Vibration    13          0.631              1.861              2.285
 Vibration    14          0.641              1.828              2.060
 Vibration    15          0.643              1.822              2.024
 Vibration    16          0.666              1.752              1.688
 Vibration    17          0.704              1.639              1.321
 Vibration    18          0.959              1.031              0.449

 Normal termination of Gaussian 09 at Wed Aug 18 05:36:37 2021.
