 Gaussian 09, Revision D.01,
 Gaussian 09:  EM64L-G09RevD.01 24-Apr-2013

 ------------------------------------------------------------
 #b3lyp/gen pseudo=read opt freq=noraman scrf=(solvent=water)
 ------------------------------------------------------------

 ------------
 Estrutura 39
 ------------
 Symbolic Z-matrix:
 Charge = -2 Multiplicity = 1

 SCF Done:  E(RB3LYP) =  -6597.20482422     A.U. after   23 cycles
 SCF Done:  E(RB3LYP) =  -6597.27547770     A.U. after   16 cycles
 SCF Done:  E(RB3LYP) =  -6597.33480814     A.U. after   16 cycles
 SCF Done:  E(RB3LYP) =  -6597.38512066     A.U. after   15 cycles
 SCF Done:  E(RB3LYP) =  -6597.40353848     A.U. after   16 cycles
 SCF Done:  E(RB3LYP) =  -6597.40583204     A.U. after   14 cycles
 SCF Done:  E(RB3LYP) =  -6597.40539527     A.U. after   14 cycles
 SCF Done:  E(RB3LYP) =  -6597.40625764     A.U. after   10 cycles
 SCF Done:  E(RB3LYP) =  -6597.40544668     A.U. after   13 cycles
 SCF Done:  E(RB3LYP) =  -6597.40644040     A.U. after   10 cycles
 SCF Done:  E(RB3LYP) =  -6597.40708736     A.U. after   15 cycles
 SCF Done:  E(RB3LYP) =  -6597.40739982     A.U. after   12 cycles
 SCF Done:  E(RB3LYP) =  -6597.40755433     A.U. after   14 cycles
 SCF Done:  E(RB3LYP) =  -6597.40760426     A.U. after   11 cycles
 SCF Done:  E(RB3LYP) =  -6597.40762592     A.U. after   11 cycles
 SCF Done:  E(RB3LYP) =  -6597.40762162     A.U. after   10 cycles
 SCF Done:  E(RB3LYP) =  -6597.40762030     A.U. after   10 cycles
 SCF Done:  E(RB3LYP) =  -6597.40762196     A.U. after   10 cycles
 SCF Done:  E(RB3LYP) =  -6597.40762227     A.U. after    9 cycles
 Optimization completed.
    -- Stationary point found.
 Normal termination of Gaussian 09 at Wed Aug 18 07:15:04 2021.

 ------------------------------------------------------------------
 #N Geom=AllCheck Guess=TCheck SCRF=Check GenChk RB3LYP/ChkBas Freq
 ------------------------------------------------------------------

 Structure from the checkpoint file:  "/home/scr/diego/Gau-6129.chk"
 ------------
 Estrutura 39
 ------------
 Charge = -2 Multiplicity = 1

                         Standard orientation:
 ---------------------------------------------------------------------
 Center     Atomic      Atomic             Coordinates (Angstroms)
 Number     Number       Type             X           Y           Z
 ---------------------------------------------------------------------
      1         78           0        0.000013    0.296642   -0.012267
      2         35           0        1.803327   -1.506762    0.060837
      3          7           0       -0.000438    0.396729    2.123925
      4          8           0        1.071020    0.429461    2.705792
      5          8           0       -1.071924    0.430351    2.705615
      6         35           0       -1.803772   -1.506244    0.060095
      7          7           0        0.000653    0.216741   -2.149504
      8          8           0        0.001802    1.268857   -2.766472
      9          8           0       -0.000241   -0.873079   -2.697663
     10         17           0       -1.723733    1.999624   -0.079081
     11         17           0        1.724193    1.999089   -0.078268
 ---------------------------------------------------------------------

 SCF Done:  E(RB3LYP) =  -6597.40762227     A.U. after    1 cycles

 The electronic state is 1-A.
 Alpha  occ. eigenvalues -- -482.75011-482.75010-101.45106-101.45099 -62.43125
 Alpha  occ. eigenvalues --  -62.43124 -56.26328 -56.26328 -56.26028 -56.26027
 Alpha  occ. eigenvalues --  -56.26019 -56.26018 -19.14633 -19.14619 -19.14617
 Alpha  occ. eigenvalues --  -19.14614 -14.51323 -14.51321  -9.40283  -9.40281
 Alpha  occ. eigenvalues --   -8.64840  -8.64840  -7.17092  -7.17091  -7.16273
 Alpha  occ. eigenvalues --   -7.16272  -7.16254  -7.16253  -6.48036  -6.48035
 Alpha  occ. eigenvalues --   -6.46981  -6.46981  -6.46951  -6.46951  -4.01218
 Alpha  occ. eigenvalues --   -2.59474  -2.59473  -2.59192  -2.59192  -2.59168
 Alpha  occ. eigenvalues --   -2.59168  -2.58340  -2.58340  -2.58339  -2.58339
 Alpha  occ. eigenvalues --   -2.22293  -2.22223  -2.22205  -1.18885  -1.18781
 Alpha  occ. eigenvalues --   -1.01767  -1.01766  -0.75740  -0.74745  -0.72346
 Alpha  occ. eigenvalues --   -0.71738  -0.63064  -0.60430  -0.52495  -0.50584
 Alpha  occ. eigenvalues --   -0.50291  -0.50290  -0.48826  -0.48821  -0.39584
 Alpha  occ. eigenvalues --   -0.39347  -0.37794  -0.36094  -0.36061  -0.31063
 Alpha  occ. eigenvalues --   -0.31018  -0.30352  -0.29995  -0.29737  -0.27824
 Alpha  occ. eigenvalues --   -0.27305  -0.27302  -0.26407  -0.26166  -0.25966
 Alpha  occ. eigenvalues --   -0.25468  -0.24803  -0.24667  -0.24096  -0.22948
 Alpha virt. eigenvalues --   -0.11914  -0.08762  -0.03710  -0.03701   0.05535
 Alpha virt. eigenvalues --    0.05555   0.06697   0.09340   0.22043   0.23263
 Alpha virt. eigenvalues --    0.23466   0.29101   0.32986   0.36101   0.36514

 Mulliken charges:
               1
     1  Pt  -0.288528
     2  Br  -0.185674
     3  N    0.148462
     4  O   -0.282951
     5  O   -0.282946
     6  Br  -0.185680
     7  N    0.148872
     8  O   -0.282671
     9  O   -0.283924
    10  Cl  -0.252490
    11  Cl  -0.252471
 Sum of Mulliken charges =  -2.00000

 Dipole moment (field-independent basis, Debye):
    X=             -0.0005    Y=             -3.0163    Z=              0.1271  Tot=              3.0190
 Quadrupole moment (field-independent basis, Debye-Ang):
   XX=           -146.3794   YY=           -147.2271   ZZ=           -157.5707
   XY=             -0.0026   XZ=              0.0031   YZ=             -0.5144

  Exact polarizability: 217.236   0.002 214.529  -0.002  -0.699 195.577
 Approx polarizability: 321.179   0.011 318.297  -0.006  -0.779 282.069

                      1                      2                      3
                      A                      A                      A
 Frequencies --     22.7633                69.2741                88.6283
 Red. masses --     20.7195                16.0365                54.9914
 Frc consts  --      0.0063                 0.0453                 0.2545
 IR Inten    --      0.0093                 0.0012                 1.5341

                      4                      5                      6
                      A                      A                      A
 Frequencies --     94.9468               100.8757               107.6799
 Red. masses --     25.5732                27.6118                26.2541
 Frc consts  --      0.1358                 0.1655                 0.1794
 IR Inten    --      0.3184                 1.3507                 1.1027

                      7                      8                      9
                      A                      A                      A
 Frequencies --    120.9726               122.4608               128.7800
 Red. masses --     25.9528                21.6394                24.3193
 Frc consts  --      0.2238                 0.1912                 0.2376
 IR Inten    --      0.0696                 0.0863                 0.4144

                     10                     11                     12
                      A                      A                      A
 Frequencies --    139.6700               146.5303               195.6101
 Red. masses --     35.9802                33.7950                67.3492
 Frc consts  --      0.4135                 0.4275                 1.5183
 IR Inten    --      0.0344                 0.4925                 9.4798

                     13                     14                     15
                      A                      A                      A
 Frequencies --    203.0348               239.9291               245.5740
 Red. masses --     59.8759                16.1915                20.9456
 Frc consts  --      1.4543                 0.5492                 0.7442
 IR Inten    --     12.1557                 5.6349               109.4468

                     16                     17                     18
                      A                      A                      A
 Frequencies --    279.0468               288.0403               310.1380
 Red. masses --     23.3804                21.6539                23.4604
 Frc consts  --      1.0726                 1.0585                 1.3295
 IR Inten    --     37.8196                27.8148                40.2646

                     19                     20                     21
                      A                      A                      A
 Frequencies --    316.0166               580.5670               581.1640
 Red. masses --     24.6075                14.5627                14.5567
 Frc consts  --      1.4479                 2.8920                 2.8967
 IR Inten    --     45.3133                12.6721                12.2270

                     22                     23                     24
                      A                      A                      A
 Frequencies --    835.3458               840.6242              1400.0171
 Red. masses --     15.3515                15.3321                15.0593
 Frc consts  --      6.3115                 6.3835                17.3909
 IR Inten    --      1.9424               336.6452              1374.3995

                     25                     26                     27
                      A                      A                      A
 Frequencies --   1423.4552              1606.0208              1606.7554
 Red. masses --     15.0985                14.6471                14.6468
 Frc consts  --     18.0249                22.2589                22.2789
 IR Inten    --      3.7239               549.0762               545.2592

 - Thermochemistry -
 -------------------
 Temperature   298.150 Kelvin.  Pressure   1.00000 Atm.
 Atom     1 has atomic number 78 and mass 194.96480

 Molecular mass:   514.72498 amu.
 Principal axes and moments of inertia in atomic units:
                           1         2         3
     Eigenvalues --  4654.256234856.171445211.77764
           X            1.00000   0.00005  -0.00008
           Y           -0.00004   0.99978   0.02075
           Z            0.00008  -0.02075   0.99978
 This molecule is an asymmetric top.
 Rotational symmetry number  1.
 Warning -- assumption of classical behavior for rotation
           may cause significant error
 Rotational temperatures (Kelvin)      0.01861     0.01784     0.01662
 Rotational constants (GHZ):           0.38776     0.37164     0.34628
 Zero-point vibrational energy      72337.7 (Joules/Mol)
                                   17.28913 (Kcal/Mol)
 Warning -- explicit consideration of  21 degrees of freedom as
           vibrations may cause significant error
 Vibrational temperatures:     32.75    99.67   127.52   136.61   145.14
          (Kelvin)            154.93   174.05   176.19   185.29   200.95
                              210.82   281.44   292.12   345.20   353.33
                              401.49   414.43   446.22   454.68   835.31
                              836.16  1201.87  1209.47  2014.31  2048.03
                             2310.70  2311.76

 Zero-point correction=                           0.027552 (Hartree/Particle)
 Thermal correction to Energy=                    0.042712
 Thermal correction to Enthalpy=                  0.043657
 Thermal correction to Gibbs Free Energy=        -0.018989
 Sum of electronic and zero-point Energies=          -6597.380070
 Sum of electronic and thermal Energies=             -6597.364910
 Sum of electronic and thermal Enthalpies=           -6597.363966
 Sum of electronic and thermal Free Energies=        -6597.426612

                     E (Thermal)             CV                S
                      KCal/Mol        Cal/Mol-Kelvin    Cal/Mol-Kelvin
 Total                   26.802             44.892            131.850
 Electronic               0.000              0.000              0.000
 Translational            0.889              2.981             44.602
 Rotational               0.889              2.981             33.132
 Vibrational             25.025             38.931             54.116
 Vibration     1          0.593              1.985              6.377
 Vibration     2          0.598              1.969              4.174
 Vibration     3          0.601              1.957              3.690
 Vibration     4          0.603              1.953              3.555
 Vibration     5          0.604              1.948              3.437
 Vibration     6          0.606              1.943              3.310
 Vibration     7          0.609              1.932              3.085
 Vibration     8          0.610              1.930              3.061
 Vibration     9          0.611              1.924              2.964
 Vibration    10          0.615              1.914              2.808
 Vibration    11          0.617              1.906              2.717
 Vibration    12          0.636              1.846              2.174
 Vibration    13          0.639              1.836              2.105
 Vibration    14          0.657              1.779              1.803
 Vibration    15          0.660              1.770              1.762
 Vibration    16          0.679              1.712              1.540
 Vibration    17          0.685              1.696              1.485
 Vibration    18          0.699              1.654              1.362
 Vibration    19          0.703              1.643              1.331
 Vibration    20          0.937              1.073              0.484
 Vibration    21          0.938              1.072              0.483

 Optimization completed.
    -- Stationary point found.
 Normal termination of Gaussian 09 at Wed Aug 18 07:17:26 2021.
