 Gaussian 09, Revision D.01,
 Gaussian 09:  EM64L-G09RevD.01 24-Apr-2013

 ------------------------------------------------------------
 #b3lyp/gen pseudo=read opt freq=noraman scrf=(solvent=water)
 ------------------------------------------------------------

 ------------
 Estrutura 40
 ------------
 Symbolic Z-matrix:
 Charge = -2 Multiplicity = 1

 SCF Done:  E(RB3LYP) =  -6597.20526504     A.U. after   23 cycles
 SCF Done:  E(RB3LYP) =  -6597.27619779     A.U. after   16 cycles
 SCF Done:  E(RB3LYP) =  -6597.33581404     A.U. after   16 cycles
 SCF Done:  E(RB3LYP) =  -6597.38586542     A.U. after   15 cycles
 SCF Done:  E(RB3LYP) =  -6597.40382112     A.U. after   16 cycles
 SCF Done:  E(RB3LYP) =  -6597.40600568     A.U. after   14 cycles
 SCF Done:  E(RB3LYP) =  -6597.40531333     A.U. after   14 cycles
 SCF Done:  E(RB3LYP) =  -6597.40646469     A.U. after   10 cycles
 SCF Done:  E(RB3LYP) =  -6597.40552870     A.U. after   13 cycles
 SCF Done:  E(RB3LYP) =  -6597.40668810     A.U. after   10 cycles
 SCF Done:  E(RB3LYP) =  -6597.40013826     A.U. after   19 cycles
 SCF Done:  E(RB3LYP) =  -6597.40681792     A.U. after   15 cycles
 SCF Done:  E(RB3LYP) =  -6597.40767434     A.U. after   12 cycles
 SCF Done:  E(RB3LYP) =  -6597.40776105     A.U. after   12 cycles
 SCF Done:  E(RB3LYP) =  -6597.40787442     A.U. after   12 cycles
 SCF Done:  E(RB3LYP) =  -6597.40788739     A.U. after   11 cycles
 SCF Done:  E(RB3LYP) =  -6597.40788887     A.U. after   11 cycles
 SCF Done:  E(RB3LYP) =  -6597.40789038     A.U. after   10 cycles
 SCF Done:  E(RB3LYP) =  -6597.40789072     A.U. after    8 cycles
 Optimization completed.
    -- Stationary point found.
 Normal termination of Gaussian 09 at Wed Aug 18 07:32:45 2021.

 ------------------------------------------------------------------
 #N Geom=AllCheck Guess=TCheck SCRF=Check GenChk RB3LYP/ChkBas Freq
 ------------------------------------------------------------------

 Structure from the checkpoint file:  "/home/scr/diego/Gau-8117.chk"
 ------------
 Estrutura 40
 ------------
 Charge = -2 Multiplicity = 1

                         Standard orientation:
 ---------------------------------------------------------------------
 Center     Atomic      Atomic             Coordinates (Angstroms)
 Number     Number       Type             X           Y           Z
 ---------------------------------------------------------------------
      1         78           0       -0.000012    0.000103    0.000014
      2         35           0        2.562795    0.000210   -0.000544
      3          7           0       -0.000450    2.138045    0.000039
      4          8           0        0.699363    2.720969   -0.811132
      5          8           0       -0.700428    2.720884    0.811153
      6          7           0        0.000580   -2.138053   -0.000462
      7          8           0       -0.698588   -2.720779   -0.812451
      8          8           0        0.700025   -2.720968    0.811157
      9         17           0       -0.001557    0.000535   -2.413545
     10         17           0        0.001612   -0.000301    2.413514
     11         35           0       -2.562907   -0.000576    0.000903
 ---------------------------------------------------------------------

 SCF Done:  E(RB3LYP) =  -6597.40789072     A.U. after    1 cycles

 The electronic state is 1-A.
 Alpha  occ. eigenvalues -- -482.74979-482.74978-101.45208-101.45207 -62.43092
 Alpha  occ. eigenvalues --  -62.43091 -56.26293 -56.26292 -56.25996 -56.25996
 Alpha  occ. eigenvalues --  -56.25988 -56.25988 -19.14626 -19.14625 -19.14624
 Alpha  occ. eigenvalues --  -19.14621 -14.51335 -14.51333  -9.40393  -9.40390
 Alpha  occ. eigenvalues --   -8.64806  -8.64804  -7.17210  -7.17208  -7.16378
 Alpha  occ. eigenvalues --   -7.16377  -7.16358  -7.16356  -6.47990  -6.47990
 Alpha  occ. eigenvalues --   -6.46950  -6.46949  -6.46922  -6.46922  -4.01247
 Alpha  occ. eigenvalues --   -2.59430  -2.59429  -2.59152  -2.59151  -2.59129
 Alpha  occ. eigenvalues --   -2.59129  -2.58313  -2.58313  -2.58312  -2.58312
 Alpha  occ. eigenvalues --   -2.22352  -2.22317  -2.22145  -1.18897  -1.18793
 Alpha  occ. eigenvalues --   -1.01776  -1.01772  -0.75969  -0.74777  -0.72293
 Alpha  occ. eigenvalues --   -0.71688  -0.63085  -0.60441  -0.52507  -0.50596
 Alpha  occ. eigenvalues --   -0.50345  -0.50260  -0.48842  -0.48820  -0.40091
 Alpha  occ. eigenvalues --   -0.38838  -0.37847  -0.36506  -0.35703  -0.31449
 Alpha  occ. eigenvalues --   -0.30904  -0.30372  -0.30006  -0.29745  -0.27937
 Alpha  occ. eigenvalues --   -0.27448  -0.27252  -0.26320  -0.25791  -0.25688
 Alpha  occ. eigenvalues --   -0.25601  -0.25250  -0.24601  -0.24266  -0.22945
 Alpha virt. eigenvalues --   -0.12012  -0.08673  -0.03815  -0.03615   0.05291
 Alpha virt. eigenvalues --    0.05769   0.06700   0.09434   0.22082   0.22753
 Alpha virt. eigenvalues --    0.23700   0.28987   0.32947   0.35563   0.35953

 Mulliken charges:
               1
     1  Pt  -0.278276
     2  Br  -0.198205
     3  N    0.148302
     4  O   -0.283192
     5  O   -0.283245
     6  N    0.148373
     7  O   -0.283208
     8  O   -0.283230
     9  Cl  -0.244538
    10  Cl  -0.244511
    11  Br  -0.198269
 Sum of Mulliken charges =  -2.00000

 Dipole moment (field-independent basis, Debye):
    X=              0.0005    Y=              0.0003    Z=              0.0010  Tot=              0.0012
 Quadrupole moment (field-independent basis, Debye-Ang):
   XX=           -145.8455   YY=           -157.6050   ZZ=           -146.8797
   XY=              0.0050   XZ=             -0.0028   YZ=             -0.0012

  Exact polarizability: 246.832  -0.006 195.725   0.026  -0.003 191.299
 Approx polarizability: 353.891  -0.015 282.005   0.065  -0.009 292.486

                      1                      2                      3
                      A                      A                      A
 Frequencies --     45.9629                80.8340                86.4556
 Red. masses --     21.1875                16.0636                41.9073
 Frc consts  --      0.0264                 0.0618                 0.1846
 IR Inten    --      0.1089                 0.0001                 1.7932

                      4                      5                      6
                      A                      A                      A
 Frequencies --    105.2895               108.2009               109.1832
 Red. masses --     36.8883                22.0452                39.8707
 Frc consts  --      0.2409                 0.1521                 0.2800
 IR Inten    --      0.4810                 0.6285                 0.2842

                      7                      8                      9
                      A                      A                      A
 Frequencies --    114.3297               130.0284               136.0563
 Red. masses --     22.3398                27.3437                23.8834
 Frc consts  --      0.1720                 0.2724                 0.2605
 IR Inten    --      2.2945                 0.0943                 1.2373

                     10                     11                     12
                      A                      A                      A
 Frequencies --    136.1775               146.3770               176.0339
 Red. masses --     22.3859                35.7759                73.9257
 Frc consts  --      0.2446                 0.4516                 1.3497
 IR Inten    --      0.0221                 0.0115                 0.0000

                     13                     14                     15
                      A                      A                      A
 Frequencies --    213.4641               237.0894               243.7126
 Red. masses --     67.9058                15.6700                21.3036
 Frc consts  --      1.8231                 0.5190                 0.7455
 IR Inten    --     57.7099                 0.0184               111.7304

                     16                     17                     18
                      A                      A                      A
 Frequencies --    287.2001               296.0197               299.0357
 Red. masses --     19.6532                17.0486                34.1769
 Frc consts  --      0.9551                 0.8802                 1.8006
 IR Inten    --     31.3865                 4.9159                 0.0001

                     19                     20                     21
                      A                      A                      A
 Frequencies --    327.4490               573.7543               585.3577
 Red. masses --     29.2800                14.5727                14.5536
 Frc consts  --      1.8497                 2.8265                 2.9381
 IR Inten    --     65.2985                 9.1795                16.1614

                     22                     23                     24
                      A                      A                      A
 Frequencies --    836.5851               841.8717              1400.9075
 Red. masses --     15.3486                15.3292                15.0601
 Frc consts  --      6.3291                 6.4012                17.4140
 IR Inten    --      0.0558               336.0398              1369.0801

                     25                     26                     27
                      A                      A                      A
 Frequencies --   1424.1117              1605.8632              1607.4487
 Red. masses --     15.0995                14.6501                14.6468
 Frc consts  --     18.0427                22.2591                22.2981
 IR Inten    --      0.1093               471.2069               619.5672

 - Thermochemistry -
 -------------------
 Temperature   298.150 Kelvin.  Pressure   1.00000 Atm.
 Atom     1 has atomic number 78 and mass 194.96480

 Molecular mass:   514.72498 amu.
 Principal axes and moments of inertia in atomic units:
                           1         2         3
     Eigenvalues --  3753.937055419.248335962.61333
           X            1.00000  -0.00004   0.00004
           Y            0.00004   1.00000   0.00001
           Z           -0.00004  -0.00001   1.00000
 This molecule is an asymmetric top.
 Rotational symmetry number  1.
 Warning -- assumption of classical behavior for rotation
           may cause significant error
 Rotational temperatures (Kelvin)      0.02307     0.01598     0.01453
 Rotational constants (GHZ):           0.48076     0.33302     0.30268
 Zero-point vibrational energy      72701.8 (Joules/Mol)
                                   17.37616 (Kcal/Mol)
 Warning -- explicit consideration of  21 degrees of freedom as
           vibrations may cause significant error
 Vibrational temperatures:     66.13   116.30   124.39   151.49   155.68
          (Kelvin)            157.09   164.49   187.08   195.75   195.93
                              210.60   253.27   307.13   341.12   350.65
                              413.22   425.91   430.25   471.13   825.50
                              842.20  1203.66  1211.26  2015.59  2048.98
                             2310.48  2312.76

 Zero-point correction=                           0.027691 (Hartree/Particle)
 Thermal correction to Energy=                    0.042740
 Thermal correction to Enthalpy=                  0.043684
 Thermal correction to Gibbs Free Energy=        -0.018014
 Sum of electronic and zero-point Energies=          -6597.380200
 Sum of electronic and thermal Energies=             -6597.365150
 Sum of electronic and thermal Enthalpies=           -6597.364206
 Sum of electronic and thermal Free Energies=        -6597.425904

                     E (Thermal)             CV                S
                      KCal/Mol        Cal/Mol-Kelvin    Cal/Mol-Kelvin
 Total                   26.820             44.850            129.854
 Electronic               0.000              0.000              0.000
 Translational            0.889              2.981             44.602
 Rotational               0.889              2.981             33.161
 Vibrational             25.042             38.889             52.091
 Vibration     1          0.595              1.979              4.984
 Vibration     2          0.600              1.962              3.871
 Vibration     3          0.601              1.959              3.739
 Vibration     4          0.605              1.945              3.354
 Vibration     5          0.606              1.943              3.301
 Vibration     6          0.606              1.942              3.283
 Vibration     7          0.607              1.938              3.194
 Vibration     8          0.612              1.923              2.946
 Vibration     9          0.614              1.917              2.859
 Vibration    10          0.614              1.917              2.857
 Vibration    11          0.617              1.907              2.719
 Vibration    12          0.628              1.872              2.370
 Vibration    13          0.644              1.820              2.014
 Vibration    14          0.656              1.784              1.825
 Vibration    15          0.659              1.773              1.776
 Vibration    16          0.684              1.697              1.490
 Vibration    17          0.690              1.681              1.439
 Vibration    18          0.692              1.676              1.422
 Vibration    19          0.711              1.621              1.273
 Vibration    20          0.930              1.088              0.497
 Vibration    21          0.942              1.063              0.476

 Optimization completed.
    -- Stationary point found.
 Normal termination of Gaussian 09 at Wed Aug 18 07:35:04 2021.
