 Gaussian 09, Revision D.01,
 Gaussian 09:  EM64L-G09RevD.01 24-Apr-2013

 ------------------------------------------------------------
 #b3lyp/gen pseudo=read opt freq=noraman scrf=(solvent=water)
 ------------------------------------------------------------

 ------------
 Estrutura 41
 ------------
 Symbolic Z-matrix:
 Charge = -2 Multiplicity = 1

 SCF Done:  E(RB3LYP) =  -2369.43990717     A.U. after   24 cycles
 SCF Done:  E(RB3LYP) =  -2369.55859163     A.U. after   17 cycles
 SCF Done:  E(RB3LYP) =  -2369.68887244     A.U. after   17 cycles
 SCF Done:  E(RB3LYP) =  -2369.77176220     A.U. after   16 cycles
 SCF Done:  E(RB3LYP) =  -2369.78691533     A.U. after   16 cycles
 SCF Done:  E(RB3LYP) =  -2369.78908648     A.U. after   14 cycles
 SCF Done:  E(RB3LYP) =  -2369.78813939     A.U. after   15 cycles
 SCF Done:  E(RB3LYP) =  -2369.79005908     A.U. after   11 cycles
 SCF Done:  E(RB3LYP) =  -2369.78986644     A.U. after   15 cycles
 SCF Done:  E(RB3LYP) =  -2369.79126514     A.U. after   11 cycles
 SCF Done:  E(RB3LYP) =  -2369.79310807     A.U. after   10 cycles
 SCF Done:  E(RB3LYP) =  -2369.79320502     A.U. after    9 cycles
 SCF Done:  E(RB3LYP) =  -2369.79329467     A.U. after   13 cycles
 SCF Done:  E(RB3LYP) =  -2369.79323803     A.U. after   11 cycles
 SCF Done:  E(RB3LYP) =  -2369.79332878     A.U. after   12 cycles
 SCF Done:  E(RB3LYP) =  -2369.79330919     A.U. after   11 cycles
 SCF Done:  E(RB3LYP) =  -2369.79329581     A.U. after   10 cycles
 SCF Done:  E(RB3LYP) =  -2369.79329210     A.U. after    9 cycles
 SCF Done:  E(RB3LYP) =  -2369.79330008     A.U. after   10 cycles
 Optimization completed.
    -- Stationary point found.
 Normal termination of Gaussian 09 at Wed Aug 18 07:50:19 2021.

 ------------------------------------------------------------------
 #N Geom=AllCheck Guess=TCheck SCRF=Check GenChk RB3LYP/ChkBas Freq
 ------------------------------------------------------------------

 Structure from the checkpoint file:  "/home/scr/diego/Gau-10023.chk"
 ------------
 Estrutura 41
 ------------
 Charge = -2 Multiplicity = 1

                         Standard orientation:
 ---------------------------------------------------------------------
 Center     Atomic      Atomic             Coordinates (Angstroms)
 Number     Number       Type             X           Y           Z
 ---------------------------------------------------------------------
      1         78           0        0.009286   -0.111854   -0.025972
      2         17           0        1.883160   -1.653184   -0.458383
      3          7           0        1.397000    1.432652    0.342120
      4          7           0       -1.611733    1.191255    0.334550
      5          8           0        1.197101    2.514031   -0.172596
      6          8           0        2.350588    1.180164    1.050436
      7          8           0       -1.628304    2.261446   -0.238143
      8          8           0       -2.478865    0.812981    1.096565
      9         17           0       -1.614822   -1.910109   -0.474462
     10         17           0       -0.012859    0.457051   -2.371897
     11         17           0        0.053621   -0.646210    2.328215
 ---------------------------------------------------------------------

 SCF Done:  E(RB3LYP) =  -2369.79330008     A.U. after    1 cycles

 The electronic state is 1-A.
 Alpha  occ. eigenvalues -- -101.45069-101.45049-101.43387-101.43348 -19.15960
 Alpha  occ. eigenvalues --  -19.15933 -19.15873 -19.15807 -14.53187 -14.53124
 Alpha  occ. eigenvalues --   -9.40268  -9.40246  -9.38585  -9.38547  -7.17077
 Alpha  occ. eigenvalues --   -7.17058  -7.16259  -7.16236  -7.16233  -7.16215
 Alpha  occ. eigenvalues --   -7.15304  -7.15268  -7.14619  -7.14609  -7.14581
 Alpha  occ. eigenvalues --   -7.14570  -4.01382  -2.22474  -2.22408  -2.22335
 Alpha  occ. eigenvalues --   -1.20591  -1.20382  -1.03683  -1.03391  -0.75980
 Alpha  occ. eigenvalues --   -0.74685  -0.73690  -0.73264  -0.63316  -0.62694
 Alpha  occ. eigenvalues --   -0.53769  -0.52603  -0.52255  -0.51064  -0.50211
 Alpha  occ. eigenvalues --   -0.49836  -0.40061  -0.37406  -0.37265  -0.36101
 Alpha  occ. eigenvalues --   -0.35958  -0.34606  -0.31667  -0.31306  -0.30786
 Alpha  occ. eigenvalues --   -0.28782  -0.28719  -0.27697  -0.27343  -0.25793
 Alpha  occ. eigenvalues --   -0.25602  -0.25576  -0.25433  -0.25076  -0.25058
 Alpha  occ. eigenvalues --   -0.24980  -0.24768
 Alpha virt. eigenvalues --   -0.10627  -0.08883  -0.04844  -0.04290   0.05472
 Alpha virt. eigenvalues --    0.05958   0.06334   0.10327   0.23627   0.24848
 Alpha virt. eigenvalues --    0.25729   0.29758   0.32242   0.37967   0.38565

 Mulliken charges:
               1
     1  Pt  -0.124303
     2  Cl  -0.319889
     3  N    0.136293
     4  N    0.137187
     5  O   -0.247655
     6  O   -0.252191
     7  O   -0.247260
     8  O   -0.253267
     9  Cl  -0.321445
    10  Cl  -0.252771
    11  Cl  -0.254699
 Sum of Mulliken charges =  -2.00000

 Dipole moment (field-independent basis, Debye):
    X=             -0.1283    Y=              1.9908    Z=              0.4889  Tot=              2.0540
 Quadrupole moment (field-independent basis, Debye-Ang):
   XX=           -139.2203   YY=           -139.6056   ZZ=           -132.9495
   XY=              0.2230   XZ=             -0.1260   YZ=              1.6778

  Exact polarizability: 185.564  -0.648 183.033   0.584  -7.880 173.601
 Approx polarizability: 276.285  -2.521 281.813   1.780 -24.136 259.505

                      1                      2                      3
                      A                      A                      A
 Frequencies --     38.6235                65.8493               106.1172
 Red. masses --     17.3740                17.9851                25.4869
 Frc consts  --      0.0153                 0.0459                 0.1691
 IR Inten    --      0.2066                 0.1982                 0.0141

                      4                      5                      6
                      A                      A                      A
 Frequencies --    115.4239               125.6284               126.8675
 Red. masses --     25.7496                30.1783                27.9382
 Frc consts  --      0.2021                 0.2806                 0.2649
 IR Inten    --      0.0418                 0.3282                 0.1699

                      7                      8                      9
                      A                      A                      A
 Frequencies --    132.8229               137.9163               145.0762
 Red. masses --     24.3439                22.1124                23.6533
 Frc consts  --      0.2530                 0.2478                 0.2933
 IR Inten    --      0.1840                 0.4645                 0.3816

                     10                     11                     12
                      A                      A                      A
 Frequencies --    152.4735               156.3860               245.5845
 Red. masses --     34.6244                28.0880                17.7975
 Frc consts  --      0.4743                 0.4047                 0.6324
 IR Inten    --      0.0389                 0.9090                 0.1920

                     13                     14                     15
                      A                      A                      A
 Frequencies --    266.7917               268.0146               269.9579
 Red. masses --     21.4422                27.1352                34.9424
 Frc consts  --      0.8992                 1.1484                 1.5004
 IR Inten    --     22.5014                88.4211               100.0985

                     16                     17                     18
                      A                      A                      A
 Frequencies --    293.9838               299.1730               316.6644
 Red. masses --     32.1512                31.5314                16.9660
 Frc consts  --      1.6372                 1.6628                 1.0024
 IR Inten    --      9.2862                87.3544                 7.6057

                     19                     20                     21
                      A                      A                      A
 Frequencies --    350.8837               596.8443               617.0558
 Red. masses --     20.7247                14.3928                14.4836
 Frc consts  --      1.5034                 3.0208                 3.2492
 IR Inten    --     19.1842                10.8210                26.2466

                     22                     23                     24
                      A                      A                      A
 Frequencies --    824.2620               845.5375              1388.3455
 Red. masses --     15.2645                15.3238                15.1694
 Frc consts  --      6.1103                 6.4548                17.2272
 IR Inten    --    287.3413               200.8595               881.2439

                     25                     26                     27
                      A                      A                      A
 Frequencies --   1425.6622              1632.2662              1654.0465
 Red. masses --     15.0930                14.6451                14.6394
 Frc consts  --     18.0742                22.9893                23.5977
 IR Inten    --    705.9688               228.3542               815.1484

 - Thermochemistry -
 -------------------
 Temperature   298.150 Kelvin.  Pressure   1.00000 Atm.
 Atom     1 has atomic number 78 and mass 194.96480

 Molecular mass:   426.82602 amu.
 Principal axes and moments of inertia in atomic units:
                           1         2         3
     Eigenvalues --  3409.662303478.578033723.65721
           X            0.99999   0.00497  -0.00056
           Y           -0.00496   0.99992   0.01199
           Z            0.00062  -0.01198   0.99993
 This molecule is an asymmetric top.
 Rotational symmetry number  1.
 Warning -- assumption of classical behavior for rotation
           may cause significant error
 Rotational temperatures (Kelvin)      0.02540     0.02490     0.02326
 Rotational constants (GHZ):           0.52930     0.51882     0.48467
 Zero-point vibrational energy      75354.3 (Joules/Mol)
                                   18.01011 (Kcal/Mol)
 Warning -- explicit consideration of  21 degrees of freedom as
           vibrations may cause significant error
 Vibrational temperatures:     55.57    94.74   152.68   166.07   180.75
          (Kelvin)            182.53   191.10   198.43   208.73   219.38
                              225.00   353.34   383.85   385.61   388.41
                              422.98   430.44   455.61   504.84   858.72
                              887.80  1185.93  1216.54  1997.52  2051.21
                             2348.46  2379.80

 Zero-point correction=                           0.028701 (Hartree/Particle)
 Thermal correction to Energy=                    0.043212
 Thermal correction to Enthalpy=                  0.044156
 Thermal correction to Gibbs Free Energy=        -0.015360
 Sum of electronic and zero-point Energies=          -2369.764599
 Sum of electronic and thermal Energies=             -2369.750088
 Sum of electronic and thermal Enthalpies=           -2369.749144
 Sum of electronic and thermal Free Energies=        -2369.808660

                     E (Thermal)             CV                S
                      KCal/Mol        Cal/Mol-Kelvin    Cal/Mol-Kelvin
 Total                   27.116             44.249            125.262
 Electronic               0.000              0.000              0.000
 Translational            0.889              2.981             44.044
 Rotational               0.889              2.981             32.157
 Vibrational             25.338             38.288             49.061
 Vibration     1          0.594              1.981              5.328
 Vibration     2          0.597              1.971              4.274
 Vibration     3          0.605              1.944              3.339
 Vibration     4          0.608              1.937              3.176
 Vibration     5          0.611              1.927              3.012
 Vibration     6          0.611              1.926              2.993
 Vibration     7          0.613              1.921              2.905
 Vibration     8          0.614              1.915              2.833
 Vibration     9          0.616              1.908              2.736
 Vibration    10          0.619              1.900              2.641
 Vibration    11          0.620              1.896              2.593
 Vibration    12          0.660              1.770              1.762
 Vibration    13          0.672              1.734              1.617
 Vibration    14          0.673              1.732              1.609
 Vibration    15          0.674              1.728              1.596
 Vibration    16          0.689              1.685              1.451
 Vibration    17          0.692              1.675              1.422
 Vibration    18          0.704              1.642              1.327
 Vibration    19          0.728              1.573              1.162
 Vibration    20          0.955              1.039              0.455
 Vibration    21          0.977              0.996              0.421

 Normal termination of Gaussian 09 at Wed Aug 18 07:51:56 2021.
