 Gaussian 09, Revision D.01,
 Gaussian 09:  EM64L-G09RevD.01 24-Apr-2013

 -----------------------------------------------------------------
 #b3lyp/gen pseudo=read opt=(loose,cartesian) scrf=(solvent=water)
 -----------------------------------------------------------------

 ------------
 Estrutura 42
 ------------
 Symbolic Z-matrix:
 Charge = -2 Multiplicity = 1

 SCF Done:  E(RB3LYP) =  -4483.60191761     A.U. after   18 cycles
 SCF Done:  E(RB3LYP) =  -4483.60354090     A.U. after   12 cycles
 SCF Done:  E(RB3LYP) =  -4483.60374730     A.U. after   11 cycles
 SCF Done:  E(RB3LYP) =  -4483.60375508     A.U. after   12 cycles
 SCF Done:  E(RB3LYP) =  -4483.60378869     A.U. after   11 cycles
 SCF Done:  E(RB3LYP) =  -4483.60287859     A.U. after   14 cycles
 SCF Done:  E(RB3LYP) =  -4483.60378881     A.U. after    8 cycles
 Optimization completed.
    -- Stationary point found.

                         Standard orientation:
 ---------------------------------------------------------------------
 Center     Atomic      Atomic             Coordinates (Angstroms)
 Number     Number       Type             X           Y           Z
 ---------------------------------------------------------------------
      1         78           0       -0.147741   -0.085102    0.021623
      2          7           0       -2.255140   -0.146507    0.091802
      3          7           0       -0.271359    1.980635   -0.336220
      4          8           0       -2.814360    0.768015    0.665830
      5          8           0       -2.827633   -1.071772   -0.443288
      6          8           0        0.488085    2.724908    0.249319
      7          8           0       -1.123642    2.355181   -1.119722
      8         35           0        2.458866    0.012419   -0.091154
      9         17           0       -0.130138    0.330238    2.401592
     10         17           0       -0.047919   -2.505421    0.454525
     11         17           0       -0.211981   -0.462834   -2.362143
 ---------------------------------------------------------------------

 The electronic state is 1-A.
 Alpha  occ. eigenvalues -- -482.73396-101.45261-101.45255-101.43489 -62.41513
 Alpha  occ. eigenvalues --  -56.24676 -56.24435 -56.24430 -19.16304 -19.16184
 Alpha  occ. eigenvalues --  -19.16067 -19.15962 -14.53355 -14.53247  -9.40451
 Alpha  occ. eigenvalues --   -9.40443  -9.38684  -8.63218  -7.17261  -7.17253
 Alpha  occ. eigenvalues --   -7.16430  -7.16428  -7.16424  -7.16423  -7.15407
 Alpha  occ. eigenvalues --   -7.14716  -7.14706  -6.46276  -6.45424  -6.45409
 Alpha  occ. eigenvalues --   -4.01482  -2.57743  -2.57511  -2.57499  -2.56831
 Alpha  occ. eigenvalues --   -2.56831  -2.22557  -2.22549  -2.22437  -1.20805
 Alpha  occ. eigenvalues --   -1.20468  -1.03938  -1.03559  -0.76057  -0.74858
 Alpha  occ. eigenvalues --   -0.73635  -0.70578  -0.63520  -0.62935  -0.54070
 Alpha  occ. eigenvalues --   -0.53107  -0.52144  -0.51138  -0.50379  -0.50102
 Alpha  occ. eigenvalues --   -0.40197  -0.37453  -0.37183  -0.36055  -0.35942
 Alpha  occ. eigenvalues --   -0.34286  -0.31757  -0.31598  -0.30766  -0.29210
 Alpha  occ. eigenvalues --   -0.29123  -0.27784  -0.27600  -0.25761  -0.25701
 Alpha  occ. eigenvalues --   -0.25593  -0.25455  -0.25203  -0.24725  -0.24248
 Alpha  occ. eigenvalues --   -0.24082
 Alpha virt. eigenvalues --   -0.10794  -0.09338  -0.04917  -0.04617   0.05566
 Alpha virt. eigenvalues --    0.05785   0.06308   0.09608   0.23089   0.23505
 Alpha virt. eigenvalues --    0.24820   0.29444   0.31699   0.37000   0.37632

 Mulliken charges:
               1
     1  Pt  -0.173050
     2  N    0.152999
     3  N    0.143501
     4  O   -0.255510
     5  O   -0.248992
     6  O   -0.253879
     7  O   -0.258963
     8  Br  -0.286337
     9  Cl  -0.252572
    10  Cl  -0.315658
    11  Cl  -0.251537
 Sum of Mulliken charges =  -2.00000

 Dipole moment (field-independent basis, Debye):
    X=              0.6269    Y=              1.1524    Z=             -0.2386  Tot=              1.3334
 Quadrupole moment (field-independent basis, Debye-Ang):
   XX=           -146.1926   YY=           -146.0529   ZZ=           -138.5577
   XY=             -0.0031   XZ=             -1.9196   YZ=             -1.1597

 Normal termination of Gaussian 09 at Tue May 10 10:43:46 2022.
