 Gaussian 09, Revision D.01,
 Gaussian 09:  EM64L-G09RevD.01 24-Apr-2013

 -----------------------------------------------------------------
 #b3lyp/gen pseudo=read opt=(loose,cartesian) scrf=(solvent=water)
 -----------------------------------------------------------------

 ------------
 Estrutura 44
 ------------
 Symbolic Z-matrix:
 Charge = -2 Multiplicity = 1

 SCF Done:  E(RB3LYP) =  -6597.41022048     A.U. after   17 cycles
 SCF Done:  E(RB3LYP) =  -6597.41155286     A.U. after   12 cycles
 SCF Done:  E(RB3LYP) =  -6597.41178552     A.U. after   12 cycles
 SCF Done:  E(RB3LYP) =  -6597.41177772     A.U. after   12 cycles
 SCF Done:  E(RB3LYP) =  -6597.41181554     A.U. after    8 cycles
 Optimization completed.
    -- Stationary point found.

                         Standard orientation:
 ---------------------------------------------------------------------
 Center     Atomic      Atomic             Coordinates (Angstroms)
 Number     Number       Type             X           Y           Z
 ---------------------------------------------------------------------
      1         78           0       -0.103661   -0.216024   -0.109833
      2         17           0        0.007287    0.095475   -2.543752
      3          7           0       -2.186483   -0.558781   -0.225643
      4          7           0       -0.219328   -0.514883    1.968153
      5          8           0       -2.635098   -1.454150    0.463762
      6          8           0       -2.855806    0.134947   -0.962261
      7          8           0        0.658157   -1.147992    2.519610
      8          8           0       -1.186470   -0.050044    2.544002
      9         17           0        0.244905   -2.594863   -0.425288
     10         35           0        2.466048    0.204599    0.044355
     11         35           0       -0.500542    2.280915    0.250565
 ---------------------------------------------------------------------

 The electronic state is 1-A.
 Alpha  occ. eigenvalues -- -482.75046-482.73410-101.45156-101.43555 -62.43160
 Alpha  occ. eigenvalues --  -62.41526 -56.26361 -56.26061 -56.26060 -56.24691
 Alpha  occ. eigenvalues --  -56.24447 -56.24442 -19.16209 -19.16107 -19.16025
 Alpha  occ. eigenvalues --  -19.15898 -14.53264 -14.53189  -9.40339  -9.38747
 Alpha  occ. eigenvalues --   -8.64876  -8.63231  -7.17144  -7.16322  -7.16321
 Alpha  occ. eigenvalues --   -7.15473  -7.14778  -7.14768  -6.48062  -6.47009
 Alpha  occ. eigenvalues --   -6.47005  -6.46295  -6.45434  -6.45418  -4.01301
 Alpha  occ. eigenvalues --   -2.59502  -2.59214  -2.59211  -2.58384  -2.58384
 Alpha  occ. eigenvalues --   -2.57761  -2.57527  -2.57515  -2.56838  -2.56838
 Alpha  occ. eigenvalues --   -2.22421  -2.22315  -2.22267  -1.20714  -1.20362
 Alpha  occ. eigenvalues --   -1.03816  -1.03431  -0.75466  -0.73770  -0.72145
 Alpha  occ. eigenvalues --   -0.70533  -0.63440  -0.62856  -0.53995  -0.53006
 Alpha  occ. eigenvalues --   -0.52028  -0.51067  -0.50308  -0.50030  -0.39560
 Alpha  occ. eigenvalues --   -0.37121  -0.36845  -0.36037  -0.35881  -0.34287
 Alpha  occ. eigenvalues --   -0.31689  -0.31161  -0.30562  -0.28988  -0.28839
 Alpha  occ. eigenvalues --   -0.27355  -0.27174  -0.25686  -0.25566  -0.25407
 Alpha  occ. eigenvalues --   -0.25192  -0.24723  -0.24703  -0.24087  -0.23832
 Alpha virt. eigenvalues --   -0.11217  -0.09332  -0.04865  -0.04619   0.05443
 Alpha virt. eigenvalues --    0.05767   0.06358   0.09201   0.22157   0.22721
 Alpha virt. eigenvalues --    0.23757   0.29119   0.31683   0.36111   0.36576

 Mulliken charges:
               1
     1  Pt  -0.237022
     2  Cl  -0.311755
     3  N    0.155012
     4  N    0.144249
     5  O   -0.255141
     6  O   -0.252149
     7  O   -0.254138
     8  O   -0.260443
     9  Cl  -0.255336
    10  Br  -0.279712
    11  Br  -0.193564
 Sum of Mulliken charges =  -2.00000

 Dipole moment (field-independent basis, Debye):
    X=              0.2753    Y=              2.0361    Z=              1.3362  Tot=              2.4509
 Quadrupole moment (field-independent basis, Debye-Ang):
   XX=           -152.9725   YY=           -146.1133   ZZ=           -150.9391
   XY=              0.6724   XZ=              0.1626   YZ=              2.8513

 Normal termination of Gaussian 09 at Tue May 10 10:45:57 2022.
