 Gaussian 09, Revision D.01,
 Gaussian 09:  EM64L-G09RevD.01 24-Apr-2013

 -----------------------------------------------------------------
 #b3lyp/gen pseudo=read opt=(loose,cartesian) scrf=(solvent=water)
 -----------------------------------------------------------------

 ------------
 Estrutura 47
 ------------
 Symbolic Z-matrix:
 Charge = -2 Multiplicity = 1

 SCF Done:  E(RB3LYP) =  -8711.21822406     A.U. after   17 cycles
 SCF Done:  E(RB3LYP) =  -8711.21938705     A.U. after   12 cycles
 SCF Done:  E(RB3LYP) =  -8711.21956969     A.U. after   12 cycles
 SCF Done:  E(RB3LYP) =  -8711.21961173     A.U. after   12 cycles
 SCF Done:  E(RB3LYP) =  -8711.21956459     A.U. after   12 cycles
 SCF Done:  E(RB3LYP) =  -8711.21960308     A.U. after    9 cycles
 SCF Done:  E(RB3LYP) =  -8711.21963464     A.U. after    7 cycles
 SCF Done:  E(RB3LYP) =  -8711.21970685     A.U. after   12 cycles
 SCF Done:  E(RB3LYP) =  -8711.21960013     A.U. after   11 cycles
 SCF Done:  E(RB3LYP) =  -8711.21968734     A.U. after    7 cycles
 SCF Done:  E(RB3LYP) =  -8711.21669128     A.U. after   13 cycles
 SCF Done:  E(RB3LYP) =  -8711.21965129     A.U. after    8 cycles
 Optimization completed.
    -- Stationary point found.

                         Standard orientation:
 ---------------------------------------------------------------------
 Center     Atomic      Atomic             Coordinates (Angstroms)
 Number     Number       Type             X           Y           Z
 ---------------------------------------------------------------------
      1         78           0        0.001196   -0.157100   -0.211733
      2          7           0       -1.633136   -1.432321   -0.630981
      3          7           0        1.257445   -1.861586   -0.238092
      4          8           0       -1.429586   -2.330728   -1.424921
      5          8           0       -2.693735   -1.243507   -0.072693
      6          8           0        2.326009   -1.788271   -0.807018
      7          8           0        0.841607   -2.865535    0.307212
      8         35           0       -0.353062   -0.470250    2.295302
      9         35           0       -1.566452    1.931938   -0.218607
     10         35           0        2.053363    1.372274    0.287293
     11         17           0        0.323383    0.114517   -2.597737
 ---------------------------------------------------------------------

 The electronic state is 1-A.
 Alpha  occ. eigenvalues -- -482.75033-482.73458-482.73451-101.45141 -62.43146
 Alpha  occ. eigenvalues --  -62.41571 -62.41563 -56.26346 -56.26047 -56.26046
 Alpha  occ. eigenvalues --  -56.24737 -56.24729 -56.24492 -56.24487 -56.24484
 Alpha  occ. eigenvalues --  -56.24480 -19.16217 -19.16211 -19.16100 -19.16098
 Alpha  occ. eigenvalues --  -14.53268 -14.53267  -9.40320  -8.64861  -8.63275
 Alpha  occ. eigenvalues --   -8.63266  -7.17125  -7.16303  -7.16302  -6.48045
 Alpha  occ. eigenvalues --   -6.46994  -6.46991  -6.46341  -6.46331  -6.45478
 Alpha  occ. eigenvalues --   -6.45468  -6.45462  -6.45454  -4.01104  -2.59486
 Alpha  occ. eigenvalues --   -2.59197  -2.59195  -2.58370  -2.58369  -2.57806
 Alpha  occ. eigenvalues --   -2.57797  -2.57572  -2.57561  -2.57559  -2.57550
 Alpha  occ. eigenvalues --   -2.56882  -2.56881  -2.56874  -2.56873  -2.22176
 Alpha  occ. eigenvalues --   -2.22142  -2.22110  -1.20785  -1.20516  -1.03890
 Alpha  occ. eigenvalues --   -1.03616  -0.75356  -0.72307  -0.70825  -0.70324
 Alpha  occ. eigenvalues --   -0.63379  -0.62794  -0.54046  -0.53036  -0.52081
 Alpha  occ. eigenvalues --   -0.51110  -0.50348  -0.50130  -0.39518  -0.36916
 Alpha  occ. eigenvalues --   -0.36709  -0.35579  -0.35463  -0.33977  -0.31765
 Alpha  occ. eigenvalues --   -0.31125  -0.30617  -0.29009  -0.28841  -0.27367
 Alpha  occ. eigenvalues --   -0.27164  -0.25451  -0.25378  -0.25044  -0.24823
 Alpha  occ. eigenvalues --   -0.24540  -0.23988  -0.23868  -0.23636
 Alpha virt. eigenvalues --   -0.11213  -0.09763  -0.04886  -0.04636   0.05458
 Alpha virt. eigenvalues --    0.05647   0.06303   0.08373   0.21470   0.21898
 Alpha virt. eigenvalues --    0.23039   0.28795   0.31647   0.35452   0.35931

 Mulliken charges:
               1
     1  Pt  -0.289833
     2  N    0.153344
     3  N    0.155302
     4  O   -0.255291
     5  O   -0.252310
     6  O   -0.249760
     7  O   -0.255936
     8  Br  -0.192926
     9  Br  -0.279198
    10  Br  -0.278292
    11  Cl  -0.255101
 Sum of Mulliken charges =  -2.00000

 Dipole moment (field-independent basis, Debye):
    X=             -0.1528    Y=              0.5822    Z=              2.0455  Tot=              2.1322
 Quadrupole moment (field-independent basis, Debye-Ang):
   XX=           -158.7497   YY=           -158.8277   ZZ=           -151.5865
   XY=             -0.2036   XZ=              2.0462   YZ=             -1.5381

 Normal termination of Gaussian 09 at Tue May 10 10:51:30 2022.
