 Gaussian 09, Revision D.01,
 Gaussian 09:  EM64L-G09RevD.01 24-Apr-2013

 ------------------------------------------------------------
 #b3lyp/gen pseudo=read opt freq=noraman scrf=(solvent=water)
 ------------------------------------------------------------

 ------------
 Estrutura 49
 ------------
 Symbolic Z-matrix:
 Charge = -2 Multiplicity = 1

 SCF Done:  E(RB3LYP) =  -10824.6902807     A.U. after   20 cycles
 SCF Done:  E(RB3LYP) =  -10824.8039860     A.U. after   15 cycles
 SCF Done:  E(RB3LYP) =  -10824.9243503     A.U. after   15 cycles
 SCF Done:  E(RB3LYP) =  -10824.9979425     A.U. after   16 cycles
 SCF Done:  E(RB3LYP) =  -10825.0152882     A.U. after   16 cycles
 SCF Done:  E(RB3LYP) =  -10825.0174390     A.U. after   13 cycles
 SCF Done:  E(RB3LYP) =  -10825.0212677     A.U. after   13 cycles
 SCF Done:  E(RB3LYP) =  -10825.0202430     A.U. after   14 cycles
 SCF Done:  E(RB3LYP) =  -10825.0225773     A.U. after   11 cycles
 SCF Done:  E(RB3LYP) =  -10825.0221331     A.U. after   15 cycles
 SCF Done:  E(RB3LYP) =  -10825.0275454     A.U. after   12 cycles
 SCF Done:  E(RB3LYP) =  -10825.0274517     A.U. after   11 cycles
 SCF Done:  E(RB3LYP) =  -10825.0275039     A.U. after   11 cycles
 SCF Done:  E(RB3LYP) =  -10825.0274953     A.U. after   11 cycles
 SCF Done:  E(RB3LYP) =  -10825.0275737     A.U. after   11 cycles
 SCF Done:  E(RB3LYP) =  -10825.0275302     A.U. after   10 cycles
 SCF Done:  E(RB3LYP) =  -10825.0274831     A.U. after   11 cycles
 SCF Done:  E(RB3LYP) =  -10825.0272202     A.U. after   13 cycles
 SCF Done:  E(RB3LYP) =  -10825.0276138     A.U. after    7 cycles
 Optimization completed.
    -- Stationary point found.
 Normal termination of Gaussian 09 at Wed Aug 18 08:40:47 2021.

 ------------------------------------------------------------------
 #N Geom=AllCheck Guess=TCheck SCRF=Check GenChk RB3LYP/ChkBas Freq
 ------------------------------------------------------------------

 Structure from the checkpoint file:  "/home/scr/diego/Gau-12771.chk"
 ------------
 Estrutura 49
 ------------
 Charge = -2 Multiplicity = 1

                         Standard orientation:
 ---------------------------------------------------------------------
 Center     Atomic      Atomic             Coordinates (Angstroms)
 Number     Number       Type             X           Y           Z
 ---------------------------------------------------------------------
      1         78           0       -0.000217    0.051415    0.159951
      2          7           0       -0.084049    1.920892    1.148627
      3          7           0        0.079098   -0.893408    2.052268
      4          8           0        0.606772    2.051933    2.141173
      5          8           0       -0.813119    2.784690    0.708319
      6          8           0       -0.622313   -0.431462    2.931975
      7          8           0        0.818638   -1.844191    2.200535
      8         35           0        2.555114    0.235236    0.132418
      9         35           0       -0.089527    1.240478   -2.158643
     10         35           0       -2.556359   -0.112500    0.237488
     11         35           0        0.094536   -2.268657   -1.032361
 ---------------------------------------------------------------------

 SCF Done:  E(RB3LYP) =  -10825.0276138     A.U. after    1 cycles

 The electronic state is 1-A.
 Alpha  occ. eigenvalues -- -482.74967-482.74963-482.73468-482.73458 -62.43077
 Alpha  occ. eigenvalues --  -62.43073 -62.41580 -62.41569 -56.26277 -56.26272
 Alpha  occ. eigenvalues --  -56.25979 -56.25979 -56.25975 -56.25974 -56.24747
 Alpha  occ. eigenvalues --  -56.24735 -56.24501 -56.24496 -56.24490 -56.24485
 Alpha  occ. eigenvalues --  -19.16183 -19.16148 -19.16070 -19.16060 -14.53255
 Alpha  occ. eigenvalues --  -14.53226  -8.64790  -8.64785  -8.63283  -8.63271
 Alpha  occ. eigenvalues --   -6.47968  -6.47964  -6.46925  -6.46923  -6.46921
 Alpha  occ. eigenvalues --   -6.46918  -6.46350  -6.46337  -6.45485  -6.45474
 Alpha  occ. eigenvalues --   -6.45469  -6.45458  -4.00940  -2.59409  -2.59405
 Alpha  occ. eigenvalues --   -2.59123  -2.59122  -2.59119  -2.59117  -2.58303
 Alpha  occ. eigenvalues --   -2.58303  -2.58299  -2.58298  -2.57815  -2.57802
 Alpha  occ. eigenvalues --   -2.57581  -2.57568  -2.57568  -2.57556  -2.56889
 Alpha  occ. eigenvalues --   -2.56888  -2.56877  -2.56877  -2.22039  -2.22004
 Alpha  occ. eigenvalues --   -2.21906  -1.20729  -1.20462  -1.03836  -1.03543
 Alpha  occ. eigenvalues --   -0.72853  -0.71701  -0.70751  -0.70328  -0.63347
 Alpha  occ. eigenvalues --   -0.62774  -0.54003  -0.52980  -0.52019  -0.51108
 Alpha  occ. eigenvalues --   -0.50321  -0.50081  -0.38836  -0.36621  -0.36336
 Alpha  occ. eigenvalues --   -0.35498  -0.35436  -0.33945  -0.31721  -0.30966
 Alpha  occ. eigenvalues --   -0.30345  -0.28914  -0.28507  -0.26834  -0.26645
 Alpha  occ. eigenvalues --   -0.25216  -0.25113  -0.24864  -0.24645  -0.24551
 Alpha  occ. eigenvalues --   -0.23798  -0.23719  -0.23551
 Alpha virt. eigenvalues --   -0.11613  -0.09721  -0.04857  -0.04651   0.05307
 Alpha virt. eigenvalues --    0.05532   0.06363   0.08091   0.20779   0.21264
 Alpha virt. eigenvalues --    0.21940   0.28267   0.31559   0.34333   0.34978

 Mulliken charges:
               1
     1  Pt  -0.348303
     2  N    0.155381
     3  N    0.155063
     4  O   -0.255820
     5  O   -0.250028
     6  O   -0.255733
     7  O   -0.250729
     8  Br  -0.199936
     9  Br  -0.274373
    10  Br  -0.199931
    11  Br  -0.275592
 Sum of Mulliken charges =  -2.00000

 Dipole moment (field-independent basis, Debye):
    X=             -0.0043    Y=             -0.2064    Z=             -0.7068  Tot=              0.7364
 Quadrupole moment (field-independent basis, Debye-Ang):
   XX=           -158.1865   YY=           -164.1081   ZZ=           -165.2032
   XY=              3.1856   XZ=             -1.0172   YZ=             -0.3611

  Exact polarizability: 255.327  -7.029 236.141   2.230   0.658 237.915
 Approx polarizability: 364.297 -23.526 346.709   7.403   1.299 350.423

                      1                      2                      3
                      A                      A                      A
 Frequencies --     40.8919                61.8476                73.4599
 Red. masses --     19.7205                36.6805                51.4024
 Frc consts  --      0.0194                 0.0827                 0.1634
 IR Inten    --      0.2526                 0.6352                 0.0135

                      4                      5                      6
                      A                      A                      A
 Frequencies --     85.5691                90.9864                92.1339
 Red. masses --     64.6777                30.4540                33.3990
 Frc consts  --      0.2790                 0.1485                 0.1670
 IR Inten    --      0.9197                 0.7565                 1.1625

                      7                      8                      9
                      A                      A                      A
 Frequencies --     97.8616               113.1732               115.3741
 Red. masses --     24.5434                26.7890                30.4502
 Frc consts  --      0.1385                 0.2022                 0.2388
 IR Inten    --      0.8961                 0.9861                 1.7903

                     10                     11                     12
                      A                      A                      A
 Frequencies --    119.8984               149.1895               173.2265
 Red. masses --     23.5273                17.9269                60.8499
 Frc consts  --      0.1993                 0.2351                 1.0758
 IR Inten    --      0.4454                 1.4917                 5.8410

                     13                     14                     15
                      A                      A                      A
 Frequencies --    174.3051               183.9519               211.6283
 Red. masses --     60.1422                69.2894                74.7300
 Frc consts  --      1.0766                 1.3814                 1.9719
 IR Inten    --     24.3254                30.7120                60.0860

                     16                     17                     18
                      A                      A                      A
 Frequencies --    248.5564               264.0383               318.3299
 Red. masses --     18.7765                17.5477                17.5485
 Frc consts  --      0.6835                 0.7208                 1.0477
 IR Inten    --     39.0309                32.8368                 1.0865

                     19                     20                     21
                      A                      A                      A
 Frequencies --    324.5263               597.9560               605.1046
 Red. masses --     16.6043                14.5020                14.3675
 Frc consts  --      1.0303                 3.0550                 3.0995
 IR Inten    --      1.9813                32.0673                 7.7655

                     22                     23                     24
                      A                      A                      A
 Frequencies --    822.9975               842.5619              1385.7236
 Red. masses --     15.2655                15.3178                15.1630
 Frc consts  --      6.0920                 6.4069                17.1550
 IR Inten    --    287.3074               256.9417               877.9167

                     25                     26                     27
                      A                      A                      A
 Frequencies --   1420.1223              1628.4655              1645.5577
 Red. masses --     15.0930                14.6478                14.6383
 Frc consts  --     17.9340                22.8866                23.3543
 IR Inten    --    989.8645               828.4600               247.1452

 - Thermochemistry -
 -------------------
 Temperature   298.150 Kelvin.  Pressure   1.00000 Atm.
 Atom     1 has atomic number 78 and mass 194.96480

 Molecular mass:   602.62395 amu.
 Principal axes and moments of inertia in atomic units:
                           1         2         3
     Eigenvalues --  6002.053006788.663606826.78667
           X            0.99971  -0.02390   0.00052
           Y            0.02286   0.96204   0.27196
           Z           -0.00700  -0.27187   0.96231
 This molecule is an asymmetric top.
 Rotational symmetry number  1.
 Warning -- assumption of classical behavior for rotation
           may cause significant error
 Rotational temperatures (Kelvin)      0.01443     0.01276     0.01269
 Rotational constants (GHZ):           0.30069     0.26585     0.26436
 Zero-point vibrational energy      71102.7 (Joules/Mol)
                                   16.99394 (Kcal/Mol)
 Warning -- explicit consideration of  21 degrees of freedom as
           vibrations may cause significant error
 Vibrational temperatures:     58.83    88.98   105.69   123.11   130.91
          (Kelvin)            132.56   140.80   162.83   166.00   172.51
                              214.65   249.23   250.79   264.67   304.49
                              357.62   379.89   458.01   466.92   860.32
                              870.61  1184.11  1212.26  1993.74  2043.24
                             2343.00  2367.59

 Zero-point correction=                           0.027082 (Hartree/Particle)
 Thermal correction to Energy=                    0.042682
 Thermal correction to Enthalpy=                  0.043626
 Thermal correction to Gibbs Free Energy=        -0.020900
 Sum of electronic and zero-point Energies=         -10825.000532
 Sum of electronic and thermal Energies=            -10824.984932
 Sum of electronic and thermal Enthalpies=          -10824.983988
 Sum of electronic and thermal Free Energies=       -10825.048514

                     E (Thermal)             CV                S
                      KCal/Mol        Cal/Mol-Kelvin    Cal/Mol-Kelvin
 Total                   26.783             45.172            135.808
 Electronic               0.000              0.000              0.000
 Translational            0.889              2.981             45.072
 Rotational               0.889              2.981             33.986
 Vibrational             25.006             39.211             56.750
 Vibration     1          0.594              1.981              5.215
 Vibration     2          0.597              1.973              4.397
 Vibration     3          0.599              1.967              4.058
 Vibration     4          0.601              1.959              3.759
 Vibration     5          0.602              1.956              3.639
 Vibration     6          0.602              1.955              3.614
 Vibration     7          0.603              1.951              3.496
 Vibration     8          0.607              1.939              3.214
 Vibration     9          0.608              1.937              3.176
 Vibration    10          0.609              1.933              3.102
 Vibration    11          0.618              1.904              2.683
 Vibration    12          0.627              1.875              2.400
 Vibration    13          0.627              1.874              2.389
 Vibration    14          0.631              1.862              2.288
 Vibration    15          0.643              1.823              2.030
 Vibration    16          0.662              1.765              1.741
 Vibration    17          0.671              1.739              1.635
 Vibration    18          0.705              1.639              1.319
 Vibration    19          0.709              1.626              1.287
 Vibration    20          0.956              1.036              0.453
 Vibration    21          0.964              1.021              0.441

 Normal termination of Gaussian 09 at Wed Aug 18 08:44:09 2021.
