 Gaussian 09, Revision D.01,
 Gaussian 09:  EM64L-G09RevD.01 24-Apr-2013

 ------------------------------------------------------------
 #b3lyp/gen pseudo=read opt freq=noraman scrf=(solvent=water)
 ------------------------------------------------------------

 ------------
 Estrutura 50
 ------------
 Symbolic Z-matrix:
 Charge = -2 Multiplicity = 1

 SCF Done:  E(RB3LYP) =  -2114.23092976     A.U. after   26 cycles
 SCF Done:  E(RB3LYP) =  -2114.35887328     A.U. after   18 cycles
 SCF Done:  E(RB3LYP) =  -2114.50929327     A.U. after   16 cycles
 SCF Done:  E(RB3LYP) =  -2114.61638371     A.U. after   17 cycles
 SCF Done:  E(RB3LYP) =  -2114.64759551     A.U. after   16 cycles
 SCF Done:  E(RB3LYP) =  -2114.65682531     A.U. after   15 cycles
 SCF Done:  E(RB3LYP) =  -2114.65676426     A.U. after   14 cycles
 SCF Done:  E(RB3LYP) =  -2114.65756038     A.U. after   10 cycles
 SCF Done:  E(RB3LYP) =  -2114.65446155     A.U. after   14 cycles
 SCF Done:  E(RB3LYP) =  -2114.65831790     A.U. after   10 cycles
 SCF Done:  E(RB3LYP) =  -2114.66137743     A.U. after   13 cycles
 SCF Done:  E(RB3LYP) =  -2114.66145756     A.U. after   13 cycles
 SCF Done:  E(RB3LYP) =  -2114.66165707     A.U. after   13 cycles
 SCF Done:  E(RB3LYP) =  -2114.66169431     A.U. after   11 cycles
 SCF Done:  E(RB3LYP) =  -2114.66170595     A.U. after   10 cycles
 SCF Done:  E(RB3LYP) =  -2114.66170788     A.U. after   10 cycles
 SCF Done:  E(RB3LYP) =  -2114.66170939     A.U. after   10 cycles
 SCF Done:  E(RB3LYP) =  -2114.66170847     A.U. after    9 cycles
 SCF Done:  E(RB3LYP) =  -2114.66170786     A.U. after    9 cycles
 Optimization completed.
    -- Stationary point found.
 Normal termination of Gaussian 09 at Wed Aug 18 09:01:53 2021.

 ------------------------------------------------------------------
 #N Geom=AllCheck Guess=TCheck SCRF=Check GenChk RB3LYP/ChkBas Freq
 ------------------------------------------------------------------

 Structure from the checkpoint file:  "/home/scr/diego/Gau-17093.chk"
 ------------
 Estrutura 50
 ------------
 Charge = -2 Multiplicity = 1

                         Standard orientation:
 ---------------------------------------------------------------------
 Center     Atomic      Atomic             Coordinates (Angstroms)
 Number     Number       Type             X           Y           Z
 ---------------------------------------------------------------------
      1         78           0        0.015839   -0.074995   -0.020291
      2         17           0        0.358393   -2.393277   -0.762955
      3          7           0        2.141634    0.102038    0.185195
      4          7           0       -0.287000    1.915873    0.585092
      5          8           0        2.717952    1.008027   -0.390430
      6          8           0        2.720023   -0.732522    0.861093
      7          8           0        0.500267    2.761266    0.213961
      8          8           0       -1.255211    2.142154    1.284745
      9         17           0       -0.151231   -0.714684    2.302686
     10         17           0        0.131492    0.628104   -2.326026
     11          7           0       -2.097377   -0.290671   -0.229514
     12          8           0       -2.622892   -1.319880    0.156810
     13          8           0       -2.721811    0.630519   -0.730645
 ---------------------------------------------------------------------

 SCF Done:  E(RB3LYP) =  -2114.66170786     A.U. after    1 cycles

 The electronic state is 1-A.
 Alpha  occ. eigenvalues -- -101.45287-101.45279-101.43575 -19.16192 -19.16084
 Alpha  occ. eigenvalues --  -19.14807 -19.14739 -19.14714 -19.14582 -14.53402
 Alpha  occ. eigenvalues --  -14.51390 -14.51307  -9.40488  -9.40479  -9.38780
 Alpha  occ. eigenvalues --   -7.17296  -7.17291  -7.16474  -7.16461  -7.16460
 Alpha  occ. eigenvalues --   -7.16453  -7.15503  -7.14807  -7.14805  -4.01681
 Alpha  occ. eigenvalues --   -2.22804  -2.22748  -2.22661  -1.20724  -1.18975
 Alpha  occ. eigenvalues --   -1.18862  -1.03830  -1.01951  -1.01833  -0.76097
 Alpha  occ. eigenvalues --   -0.74928  -0.73751  -0.63700  -0.62852  -0.60500
 Alpha  occ. eigenvalues --   -0.53899  -0.52582  -0.52128  -0.50681  -0.50317
 Alpha  occ. eigenvalues --   -0.50134  -0.49796  -0.48999  -0.48815  -0.40385
 Alpha  occ. eigenvalues --   -0.37539  -0.36974  -0.35843  -0.35388  -0.31596
 Alpha  occ. eigenvalues --   -0.31387  -0.30377  -0.30079  -0.29670  -0.29069
 Alpha  occ. eigenvalues --   -0.28612  -0.27588  -0.27298  -0.27050  -0.25729
 Alpha  occ. eigenvalues --   -0.25586  -0.25449  -0.25274  -0.25244  -0.23040
 Alpha virt. eigenvalues --   -0.10641  -0.07746  -0.04900  -0.04267  -0.03091
 Alpha virt. eigenvalues --    0.05345   0.06239   0.06735   0.11057   0.23532
 Alpha virt. eigenvalues --    0.24813   0.26567   0.28850   0.32062   0.33481

 Mulliken charges:
               1
     1  Pt  -0.020088
     2  Cl  -0.307748
     3  N    0.145765
     4  N    0.140270
     5  O   -0.275031
     6  O   -0.281344
     7  O   -0.246731
     8  O   -0.254248
     9  Cl  -0.245706
    10  Cl  -0.242031
    11  N    0.153933
    12  O   -0.281619
    13  O   -0.285423
 Sum of Mulliken charges =  -2.00000

 Dipole moment (field-independent basis, Debye):
    X=             -0.0595    Y=              1.2990    Z=              0.3679  Tot=              1.3514
 Quadrupole moment (field-independent basis, Debye-Ang):
   XX=           -150.0419   YY=           -144.8761   ZZ=           -135.0626
   XY=             -0.4785   XZ=              0.6901   YZ=              2.5700

  Exact polarizability: 192.808   0.784 194.172  -4.942 -10.467 173.828
 Approx polarizability: 288.003   4.768 306.363 -14.384 -30.438 258.512

                      1                      2                      3
                      A                      A                      A
 Frequencies --     44.7262                50.6415                88.1812
 Red. masses --     17.5735                16.8169                16.6561
 Frc consts  --      0.0207                 0.0254                 0.0763
 IR Inten    --      0.2525                 0.4796                 0.3788

                      4                      5                      6
                      A                      A                      A
 Frequencies --     99.7154               114.3722               123.1033
 Red. masses --     18.7396                23.9355                21.6741
 Frc consts  --      0.1098                 0.1845                 0.1935
 IR Inten    --      0.1662                 0.0353                 0.6746

                      7                      8                      9
                      A                      A                      A
 Frequencies --    124.1394               129.4507               137.3281
 Red. masses --     22.3793                24.8846                26.9907
 Frc consts  --      0.2032                 0.2457                 0.2999
 IR Inten    --      0.4772                 0.5576                 0.7326

                     10                     11                     12
                      A                      A                      A
 Frequencies --    139.5272               148.2175               151.1993
 Red. masses --     18.1966                32.3588                26.1956
 Frc consts  --      0.2087                 0.4188                 0.3528
 IR Inten    --      0.2183                 0.1497                 0.4181

                     13                     14                     15
                      A                      A                      A
 Frequencies --    230.3319               240.6378               263.1105
 Red. masses --     15.7605                20.1115                17.5639
 Frc consts  --      0.4926                 0.6862                 0.7164
 IR Inten    --      0.8567               106.6124                 1.4678

                     16                     17                     18
                      A                      A                      A
 Frequencies --    270.3206               275.1001               296.0173
 Red. masses --     16.3326                31.0348                33.1192
 Frc consts  --      0.7032                 1.3838                 1.7099
 IR Inten    --      1.6944                91.3959                 8.1683

                     19                     20                     21
                      A                      A                      A
 Frequencies --    301.8523               328.8383               358.9214
 Red. masses --     30.3188                16.9723                21.8343
 Frc consts  --      1.6276                 1.0813                 1.6572
 IR Inten    --     88.4112                 6.5939                21.2620

                     22                     23                     24
                      A                      A                      A
 Frequencies --    526.6016               606.0518               615.7024
 Red. masses --     14.3809                14.3849                14.5801
 Frc consts  --      2.3496                 3.1130                 3.2565
 IR Inten    --      0.6582                10.5427                34.8838

                     25                     26                     27
                      A                      A                      A
 Frequencies --    821.4074               839.8221               846.6637
 Red. masses --     15.2941                15.3316                15.3555
 Frc consts  --      6.0798                 6.3711                 6.4854
 IR Inten    --    131.3865               321.9630                99.6426

                     28                     29                     30
                      A                      A                      A
 Frequencies --   1393.2106              1403.8146              1441.6798
 Red. masses --     15.1544                15.0550                15.0614
 Frc consts  --     17.3309                17.4803                18.4439
 IR Inten    --    549.6603              1317.4962               216.0357

                     31                     32                     33
                      A                      A                      A
 Frequencies --   1602.8704              1617.8749              1646.6770
 Red. masses --     14.6592                14.6364                14.6427
 Frc consts  --     22.1900                22.5722                23.3930
 IR Inten    --     72.1992              1012.1274               541.0696

 - Thermochemistry -
 -------------------
 Temperature   298.150 Kelvin.  Pressure   1.00000 Atm.
 Atom     1 has atomic number 78 and mass 194.96480

 Molecular mass:   437.85007 amu.
 Principal axes and moments of inertia in atomic units:
                           1         2         3
     Eigenvalues --  3540.814833851.616964168.49799
           X            0.99996   0.00774   0.00524
           Y           -0.00781   0.99988   0.01362
           Z           -0.00514  -0.01366   0.99989
 This molecule is an asymmetric top.
 Rotational symmetry number  1.
 Warning -- assumption of classical behavior for rotation
           may cause significant error
 Rotational temperatures (Kelvin)      0.02446     0.02249     0.02078
 Rotational constants (GHZ):           0.50970     0.46857     0.43295
 Zero-point vibrational energy     103346.0 (Joules/Mol)
                                   24.70030 (Kcal/Mol)
 Warning -- explicit consideration of  24 degrees of freedom as
           vibrations may cause significant error
 Vibrational temperatures:     64.35    72.86   126.87   143.47   164.56
          (Kelvin)            177.12   178.61   186.25   197.58   200.75
                              213.25   217.54   331.40   346.22   378.56
                              388.93   395.81   425.90   434.30   473.12
                              516.41   757.66   871.97   885.86  1181.82
                             1208.32  1218.16  2004.52  2019.77  2074.25
                             2306.17  2327.76  2369.20

 Zero-point correction=                           0.039362 (Hartree/Particle)
 Thermal correction to Energy=                    0.055473
 Thermal correction to Enthalpy=                  0.056417
 Thermal correction to Gibbs Free Energy=        -0.006555
 Sum of electronic and zero-point Energies=          -2114.622345
 Sum of electronic and thermal Energies=             -2114.606235
 Sum of electronic and thermal Enthalpies=           -2114.605291
 Sum of electronic and thermal Free Energies=        -2114.668263

                     E (Thermal)             CV                S
                      KCal/Mol        Cal/Mol-Kelvin    Cal/Mol-Kelvin
 Total                   34.810             49.907            132.537
 Electronic               0.000              0.000              0.000
 Translational            0.889              2.981             44.120
 Rotational               0.889              2.981             32.408
 Vibrational             33.032             43.945             56.009
 Vibration     1          0.595              1.980              5.038
 Vibration     2          0.595              1.977              4.792
 Vibration     3          0.601              1.957              3.700
 Vibration     4          0.604              1.949              3.460
 Vibration     5          0.607              1.938              3.193
 Vibration     6          0.610              1.930              3.051
 Vibration     7          0.610              1.929              3.035
 Vibration     8          0.612              1.924              2.954
 Vibration     9          0.614              1.916              2.841
 Vibration    10          0.615              1.914              2.810
 Vibration    11          0.618              1.905              2.695
 Vibration    12          0.619              1.901              2.657
 Vibration    13          0.652              1.795              1.876
 Vibration    14          0.658              1.778              1.798
 Vibration    15          0.670              1.740              1.641
 Vibration    16          0.674              1.728              1.594
 Vibration    17          0.677              1.719              1.564
 Vibration    18          0.690              1.681              1.439
 Vibration    19          0.694              1.670              1.407
 Vibration    20          0.712              1.618              1.266
 Vibration    21          0.734              1.557              1.127
 Vibration    22          0.882              1.191              0.595
 Vibration    23          0.965              1.019              0.439
 Vibration    24          0.975              0.999              0.423

 Normal termination of Gaussian 09 at Wed Aug 18 09:04:12 2021.
