 Gaussian 09, Revision D.01,
 Gaussian 09:  EM64L-G09RevD.01 24-Apr-2013

 -----------------------------------------------------------------
 #b3lyp/gen pseudo=read opt=(loose,cartesian) scrf=(solvent=water)
 -----------------------------------------------------------------

 ------------
 Estrutura 51
 ------------
 Symbolic Z-matrix:
 Charge = -2 Multiplicity = 1

 SCF Done:  E(RB3LYP) =  -4228.46852632     A.U. after   17 cycles
 SCF Done:  E(RB3LYP) =  -4228.46964370     A.U. after   13 cycles
 SCF Done:  E(RB3LYP) =  -4228.46982662     A.U. after   12 cycles
 SCF Done:  E(RB3LYP) =  -4228.46958769     A.U. after   13 cycles
 SCF Done:  E(RB3LYP) =  -4228.46987170     A.U. after   10 cycles
 SCF Done:  E(RB3LYP) =  -4228.46987686     A.U. after   12 cycles
 SCF Done:  E(RB3LYP) =  -4228.46988391     A.U. after   11 cycles
 SCF Done:  E(RB3LYP) =  -4228.46988681     A.U. after   11 cycles
 SCF Done:  E(RB3LYP) =  -4228.46988154     A.U. after   11 cycles
 SCF Done:  E(RB3LYP) =  -4228.46988661     A.U. after    5 cycles
 Optimization completed.
    -- Stationary point found.

                         Standard orientation:
 ---------------------------------------------------------------------
 Center     Atomic      Atomic             Coordinates (Angstroms)
 Number     Number       Type             X           Y           Z
 ---------------------------------------------------------------------
      1         78           0       -0.219461    0.050410   -0.050584
      2          7           0       -0.115647   -0.284390    2.024880
      3          7           0        0.101453    2.157576    0.192044
      4          8           0        0.616675    0.413264    2.695941
      5          8           0       -0.816292   -1.169939    2.475319
      6          8           0        1.085042    2.541245    0.799980
      7          8           0       -0.709369    2.918009   -0.309794
      8         35           0        2.288810   -0.355866   -0.289505
      9          7           0       -0.550760   -2.041182   -0.335707
     10          8           0        0.124867   -2.826600    0.309382
     11          8           0       -1.406333   -2.392893   -1.128912
     12         17           0       -2.601208    0.383737    0.251014
     13         17           0       -0.351287    0.430063   -2.476049
 ---------------------------------------------------------------------

 The electronic state is 1-A.
 Alpha  occ. eigenvalues -- -482.75054-101.45206-101.43640 -62.43172 -56.26373
 Alpha  occ. eigenvalues --  -56.26074 -56.26069 -19.16185 -19.16100 -19.14803
 Alpha  occ. eigenvalues --  -19.14726 -19.14698 -19.14575 -14.53428 -14.51389
 Alpha  occ. eigenvalues --  -14.51289  -9.40401  -9.38838  -8.64892  -7.17204
 Alpha  occ. eigenvalues --   -7.16390  -7.16376  -7.15562  -7.14865  -7.14862
 Alpha  occ. eigenvalues --   -6.48080  -6.47030  -6.47014  -4.01506  -2.59521
 Alpha  occ. eigenvalues --   -2.59235  -2.59224  -2.58398  -2.58398  -2.22648
 Alpha  occ. eigenvalues --   -2.22558  -2.22487  -1.20729  -1.18960  -1.18855
 Alpha  occ. eigenvalues --   -1.03821  -1.01934  -1.01819  -0.75507  -0.73919
 Alpha  occ. eigenvalues --   -0.72118  -0.63669  -0.62829  -0.60480  -0.53924
 Alpha  occ. eigenvalues --   -0.52545  -0.52065  -0.50667  -0.50334  -0.50182
 Alpha  occ. eigenvalues --   -0.49755  -0.48983  -0.48803  -0.39766  -0.37152
 Alpha  occ. eigenvalues --   -0.36699  -0.35814  -0.35301  -0.31430  -0.31036
 Alpha  occ. eigenvalues --   -0.30324  -0.29992  -0.29664  -0.28881  -0.28330
 Alpha  occ. eigenvalues --   -0.27450  -0.27019  -0.26688  -0.25577  -0.25550
 Alpha  occ. eigenvalues --   -0.25426  -0.24680  -0.24660  -0.23046
 Alpha virt. eigenvalues --   -0.11084  -0.07804  -0.04895  -0.04291  -0.03079
 Alpha virt. eigenvalues --    0.05262   0.06210   0.06815   0.10532   0.22605
 Alpha virt. eigenvalues --    0.23761   0.25205   0.28423   0.31962   0.33493

 Mulliken charges:
               1
     1  Pt  -0.086107
     2  N    0.141749
     3  N    0.147637
     4  O   -0.249181
     5  O   -0.252914
     6  O   -0.274579
     7  O   -0.280853
     8  Br  -0.182099
     9  N    0.155910
    10  O   -0.283733
    11  O   -0.280882
    12  Cl  -0.249400
    13  Cl  -0.305548
 Sum of Mulliken charges =  -2.00000

 Dipole moment (field-independent basis, Debye):
    X=              2.3187    Y=             -0.4442    Z=              1.0382  Tot=              2.5790
 Quadrupole moment (field-independent basis, Debye-Ang):
   XX=           -145.6787   YY=           -155.7828   ZZ=           -147.7139
   XY=             -2.9844   XZ=             -5.2392   YZ=              0.6907

 Normal termination of Gaussian 09 at Tue May 10 10:56:09 2022.
