 Gaussian 09, Revision D.01,
 Gaussian 09:  EM64L-G09RevD.01 24-Apr-2013

 -----------------------------------------------------------------
 #b3lyp/gen pseudo=read opt=(loose,cartesian) scrf=(solvent=water)
 -----------------------------------------------------------------

 ------------
 Estrutura 53
 ------------
 Symbolic Z-matrix:
 Charge = -2 Multiplicity = 1

 SCF Done:  E(RB3LYP) =  -6342.27646571     A.U. after   17 cycles
 SCF Done:  E(RB3LYP) =  -6342.27736998     A.U. after   12 cycles
 SCF Done:  E(RB3LYP) =  -6342.27752611     A.U. after   12 cycles
 SCF Done:  E(RB3LYP) =  -6342.27755171     A.U. after   12 cycles
 SCF Done:  E(RB3LYP) =  -6342.27762431     A.U. after   12 cycles
 SCF Done:  E(RB3LYP) =  -6342.27763748     A.U. after   11 cycles
 Optimization completed.
    -- Stationary point found.

                         Standard orientation:
 ---------------------------------------------------------------------
 Center     Atomic      Atomic             Coordinates (Angstroms)
 Number     Number       Type             X           Y           Z
 ---------------------------------------------------------------------
      1         78           0        0.084320   -0.223181    0.067952
      2          7           0        2.124573   -0.722251    0.332637
      3          7           0       -0.125054    0.299615    2.140803
      4          8           0        2.770563   -0.116101    1.161117
      5          8           0        2.566345   -1.617537   -0.359430
      6          8           0        0.622544    1.135535    2.617381
      7          8           0       -1.002957   -0.250585    2.785065
      8         35           0        0.712439    2.174502   -0.529813
      9          7           0        0.261095   -0.747944   -1.996737
     10          8           0        1.244473   -0.362418   -2.606927
     11          8           0       -0.614445   -1.424020   -2.507511
     12         17           0       -0.408315   -2.535603    0.605267
     13         35           0       -2.431069    0.390882   -0.260025
 ---------------------------------------------------------------------

 The electronic state is 1-A.
 Alpha  occ. eigenvalues -- -482.75056-482.73563-101.45220 -62.43173 -62.41678
 Alpha  occ. eigenvalues --  -56.26375 -56.26075 -56.26069 -56.24844 -56.24598
 Alpha  occ. eigenvalues --  -56.24596 -19.16387 -19.16308 -19.14798 -19.14726
 Alpha  occ. eigenvalues --  -19.14704 -19.14575 -14.53529 -14.51417 -14.51305
 Alpha  occ. eigenvalues --   -9.40410  -8.64892  -8.63383  -7.17212  -7.16400
 Alpha  occ. eigenvalues --   -7.16386  -6.48084  -6.47029  -6.47013  -6.46447
 Alpha  occ. eigenvalues --   -6.45581  -6.45577  -4.01344  -2.59524  -2.59237
 Alpha  occ. eigenvalues --   -2.59225  -2.58396  -2.58396  -2.57912  -2.57674
 Alpha  occ. eigenvalues --   -2.57672  -2.56992  -2.56992  -2.22466  -2.22431
 Alpha  occ. eigenvalues --   -2.22322  -1.20921  -1.19005  -1.18848  -1.04040
 Alpha  occ. eigenvalues --   -1.01947  -1.01789  -0.75439  -0.72319  -0.70723
 Alpha  occ. eigenvalues --   -0.63630  -0.62803  -0.60489  -0.54003  -0.52595
 Alpha  occ. eigenvalues --   -0.52097  -0.50659  -0.50451  -0.50255  -0.49758
 Alpha  occ. eigenvalues --   -0.48990  -0.48799  -0.39729  -0.36904  -0.36598
 Alpha  occ. eigenvalues --   -0.35137  -0.34949  -0.31558  -0.30970  -0.30335
 Alpha  occ. eigenvalues --   -0.29938  -0.29690  -0.28944  -0.28353  -0.27415
 Alpha  occ. eigenvalues --   -0.27017  -0.26667  -0.25385  -0.25005  -0.24895
 Alpha  occ. eigenvalues --   -0.24246  -0.23994  -0.23076
 Alpha virt. eigenvalues --   -0.11216  -0.08236  -0.04964  -0.04324  -0.03093
 Alpha virt. eigenvalues --    0.05253   0.06107   0.06875   0.09661   0.21782
 Alpha virt. eigenvalues --    0.22839   0.24310   0.27957   0.31898   0.33525

 Mulliken charges:
               1
     1  Pt  -0.140492
     2  N    0.152005
     3  N    0.147845
     4  O   -0.245124
     5  O   -0.249584
     6  O   -0.273875
     7  O   -0.280640
     8  Br  -0.179446
     9  N    0.155044
    10  O   -0.282711
    11  O   -0.280763
    12  Cl  -0.249737
    13  Br  -0.272522
 Sum of Mulliken charges =  -2.00000

 Dipole moment (field-independent basis, Debye):
    X=              0.0407    Y=              2.1450    Z=             -0.4617  Tot=              2.1945
 Quadrupole moment (field-independent basis, Debye-Ang):
   XX=           -157.0964   YY=           -150.5442   ZZ=           -160.6186
   XY=             -2.0872   XZ=              1.3306   YZ=             -5.3892

 Normal termination of Gaussian 09 at Tue May 10 10:59:36 2022.
