 Gaussian 09, Revision A.02,
 Gaussian 09:  EM64L-G09RevA.02 11-Jun-2009

 ------------------------------------------------------------
 #b3lyp/gen pseudo=read opt freq=noraman scrf=(solvent=water)
 ------------------------------------------------------------

 ------------
 Estrutura 59
 ------------
 Symbolic Z-matrix:
 Charge = -2 Multiplicity = 1

 SCF Done:  E(RB3LYP) =  -8456.08809679     A.U. after   23 cycles
 SCF Done:  E(RB3LYP) =  -8456.08838442     A.U. after   19 cycles
 SCF Done:  E(RB3LYP) =  -8456.08457482     A.U. after   18 cycles
 SCF Done:  E(RB3LYP) =  -8456.08838935     A.U. after   19 cycles
 SCF Done:  E(RB3LYP) =  -8456.08836882     A.U. after   14 cycles
 SCF Done:  E(RB3LYP) =  -8456.08859532     A.U. after   14 cycles
 SCF Done:  E(RB3LYP) =  -8456.08863764     A.U. after   14 cycles
 SCF Done:  E(RB3LYP) =  -8456.08835582     A.U. after   19 cycles
 SCF Done:  E(RB3LYP) =  -8456.08858102     A.U. after   16 cycles
 SCF Done:  E(RB3LYP) =  -8456.08875732     A.U. after   15 cycles
 SCF Done:  E(RB3LYP) =  -8456.08878231     A.U. after   13 cycles
 SCF Done:  E(RB3LYP) =  -8456.08876347     A.U. after   13 cycles
 SCF Done:  E(RB3LYP) =  -8456.08876718     A.U. after   11 cycles
 SCF Done:  E(RB3LYP) =  -8456.08875198     A.U. after   12 cycles
 SCF Done:  E(RB3LYP) =  -8456.08870824     A.U. after   12 cycles
 SCF Done:  E(RB3LYP) =  -8456.08873428     A.U. after   11 cycles
 SCF Done:  E(RB3LYP) =  -8456.08873630     A.U. after   12 cycles
 SCF Done:  E(RB3LYP) =  -8456.08872013     A.U. after   11 cycles
 SCF Done:  E(RB3LYP) =  -8456.08872294     A.U. after   11 cycles
 Optimization completed.
    -- Stationary point found.
 Normal termination of Gaussian 09 at Wed Dec  1 06:35:27 2021.

 ------------------------------------------------------------------
 #N Geom=AllCheck Guess=TCheck SCRF=Check GenChk RB3LYP/ChkBas Freq
 ------------------------------------------------------------------

 Estrutura 59
 ------------
 Redundant internal coordinates taken from checkpoint file:
 /scr/guest/Gau-13140.chk
 Charge = -2 Multiplicity = 1

                         Standard orientation:
 ---------------------------------------------------------------------
 Center     Atomic      Atomic             Coordinates (Angstroms)
 Number     Number       Type             X           Y           Z
 ---------------------------------------------------------------------
      1         78           0       -0.012680   -0.010071    0.212634
      2          7           0        0.793307    1.389935    1.585094
      3          8           0        1.937931    1.241484    1.957991
      4          8           0        0.058766    2.281893    1.964506
      5          7           0       -1.788384    0.004072    1.353563
      6          8           0       -1.646039   -0.018627    2.563663
      7          8           0       -2.863643    0.037268    0.795231
      8          7           0        0.670517   -1.607831    1.429691
      9          8           0       -0.167327   -2.411056    1.796053
     10          8           0        1.844261   -1.662628    1.727887
     11         35           0       -1.005514   -1.786905   -1.415375
     12         35           0        2.195689    0.010609   -1.167309
     13         35           0       -0.905908    1.963028   -1.234645
 ---------------------------------------------------------------------

 SCF Done:  E(RB3LYP) =  -8456.08872294     A.U. after    1 cycles

 The electronic state is 1-A.
 Alpha  occ. eigenvalues -- -482.73626-482.73610-482.73478 -62.41742 -62.41725
 Alpha  occ. eigenvalues --  -62.41595 -56.24907 -56.24892 -56.24762 -56.24661
 Alpha  occ. eigenvalues --  -56.24660 -56.24644 -56.24643 -56.24517 -56.24509
 Alpha  occ. eigenvalues --  -19.16383 -19.16368 -19.16334 -19.16179 -19.16121
 Alpha  occ. eigenvalues --  -19.16112 -14.53375 -14.53335 -14.53283  -8.63448
 Alpha  occ. eigenvalues --   -8.63433  -8.63303  -6.46513  -6.46501  -6.46373
 Alpha  occ. eigenvalues --   -6.45646  -6.45641  -6.45628  -6.45624  -6.45508
 Alpha  occ. eigenvalues --   -6.45482  -4.01342  -2.57980  -2.57966  -2.57839
 Alpha  occ. eigenvalues --   -2.57741  -2.57736  -2.57726  -2.57723  -2.57606
 Alpha  occ. eigenvalues --   -2.57585  -2.57056  -2.57055  -2.57038  -2.57037
 Alpha  occ. eigenvalues --   -2.56906  -2.56906  -2.22472  -2.22398  -2.22373
 Alpha  occ. eigenvalues --   -1.20966  -1.20649  -1.20546  -1.04105  -1.03754
 Alpha  occ. eigenvalues --   -1.03673  -0.71716  -0.70577  -0.70412  -0.63876
 Alpha  occ. eigenvalues --   -0.62964  -0.62877  -0.54658  -0.53482  -0.53154
 Alpha  occ. eigenvalues --   -0.52111  -0.52055  -0.50550  -0.50403  -0.50215
 Alpha  occ. eigenvalues --   -0.50158  -0.36691  -0.35860  -0.35775  -0.35621
 Alpha  occ. eigenvalues --   -0.35497  -0.33455  -0.31762  -0.31677  -0.30516
 Alpha  occ. eigenvalues --   -0.29907  -0.28980  -0.28453  -0.26284  -0.25965
 Alpha  occ. eigenvalues --   -0.25936  -0.24739  -0.24686  -0.24590  -0.23938
 Alpha  occ. eigenvalues --   -0.23740  -0.23624
 Alpha virt. eigenvalues --   -0.09940  -0.09896  -0.05206  -0.05022  -0.04450
 Alpha virt. eigenvalues --    0.05308   0.06050   0.06518   0.08907   0.21226
 Alpha virt. eigenvalues --    0.22511   0.22886   0.27706   0.31525   0.31724

 Mulliken atomic charges:
              1
     1  Pt  -0.140294
     2  N    0.147141
     3  O   -0.242787
     4  O   -0.253559
     5  N    0.156776
     6  O   -0.261487
     7  O   -0.250589
     8  N    0.147423
     9  O   -0.255837
    10  O   -0.241761
    11  Br  -0.271092
    12  Br  -0.265343
    13  Br  -0.268593
 Sum of Mulliken atomic charges =  -2.00000

 Dipole moment (field-independent basis, Debye):
    X=              0.2616    Y=              0.0850    Z=             -1.1121  Tot=              1.1456
 Quadrupole moment (field-independent basis, Debye-Ang):
   XX=           -165.2063   YY=           -159.6053   ZZ=           -161.4587
   XY=              0.3428   XZ=             -0.9589   YZ=              0.1788

  Exact polarizability: 245.554  -1.143 227.947   4.237  -0.566 230.581
 Approx polarizability: 383.488  -3.885 326.629  14.607  -1.482 337.650

                     1                      2                      3
                     A                      A                      A
 Frequencies --    24.0389                63.4549                64.7899
 Red. masses --    17.4224                29.3561                27.4755
 Frc consts  --     0.0059                 0.0696                 0.0680
 IR Inten    --     0.1105                 0.0377                 0.3685

                     4                      5                      6
                     A                      A                      A
 Frequencies --    90.5736                92.8828                94.1569
 Red. masses --    34.5097                31.1767                26.1707
 Frc consts  --     0.1668                 0.1585                 0.1367
 IR Inten    --     0.6946                 0.5852                 0.2303

                     7                      8                      9
                     A                      A                      A
 Frequencies --   100.4919               109.8056               118.2390
 Red. masses --    21.2343                21.4944                26.5465
 Frc consts  --     0.1263                 0.1527                 0.2187
 IR Inten    --     0.2533                 0.2519                 0.0394

                    10                     11                     12
                     A                      A                      A
 Frequencies --   129.3326               132.3639               149.5964
 Red. masses --    21.0292                19.0580                16.8434
 Frc consts  --     0.2072                 0.1967                 0.2221
 IR Inten    --     2.8089                 0.0927                 1.0139

                    13                     14                     15
                     A                      A                      A
 Frequencies --   176.3938               177.3358               185.6003
 Red. masses --    50.1927                53.2693                66.8953
 Frc consts  --     0.9201                 0.9870                 1.3577
 IR Inten    --    24.5427                28.6447                42.9025

                    16                     17                     18
                     A                      A                      A
 Frequencies --   247.6127               249.5156               273.8836
 Red. masses --    17.9418                17.7984                17.5217
 Frc consts  --     0.6481                 0.6529                 0.7744
 IR Inten    --    38.0464                38.4071                33.5243

                    19                     20                     21
                     A                      A                      A
 Frequencies --   308.8060               321.9626               332.0486
 Red. masses --    16.3902                17.4497                17.2299
 Frc consts  --     0.9209                 1.0657                 1.1193
 IR Inten    --     1.3581                 1.8249                 1.5850

                    22                     23                     24
                     A                      A                      A
 Frequencies --   581.4410               605.0654               606.9063
 Red. masses --    14.4367                14.4569                14.3815
 Frc consts  --     2.8756                 3.1184                 3.1210
 IR Inten    --    20.1663                29.0866                13.0568

                    25                     26                     27
                     A                      A                      A
 Frequencies --   822.7027               823.9445               851.2921
 Red. masses --    15.2668                15.2732                15.3455
 Frc consts  --     6.0881                 6.1091                 6.5522
 IR Inten    --   275.6746               268.9528               228.7318

                    28                     29                     30
                     A                      A                      A
 Frequencies --  1386.8304              1386.9635              1438.7677
 Red. masses --    15.1555                15.1560                15.0547
 Frc consts  --    17.1739                17.1777                18.3613
 IR Inten    --   829.8435               838.7962               988.6347

                    31                     32                     33
                     A                      A                      A
 Frequencies --  1630.8108              1631.3320              1656.3391
 Red. masses --    14.6511                14.6470                14.6379
 Frc consts  --    22.9576                22.9659                23.6606
 IR Inten    --   925.9872               250.6185               418.4305

 - Thermochemistry -
 -------------------
 Temperature   298.150 Kelvin.  Pressure   1.00000 Atm.
 Atom     1 has atomic number 78 and mass 194.96480

 Molecular mass:   569.69852 amu.
 Principal axes and moments of inertia in atomic units:
                           1         2         3
     Eigenvalues --  6017.968316053.312566210.01117
           X            0.99929  -0.03739   0.00395
           Y            0.03745   0.99913  -0.01840
           Z           -0.00326   0.01853   0.99982
 This molecule is an asymmetric top.
 Rotational symmetry number  1.
 Warning -- assumption of classical behavior for rotation
           may cause significant error
 Rotational temperatures (Kelvin)      0.01439     0.01431     0.01395
 Rotational constants (GHZ):           0.29989     0.29814     0.29062
 Zero-point vibrational energy     100876.8 (Joules/Mol)
                                   24.11013 (Kcal/Mol)
 Warning -- explicit consideration of  24 degrees of freedom as
           vibrations may cause significant error
 Vibrational temperatures:     34.59    91.30    93.22   130.32   133.64
          (Kelvin)            135.47   144.59   157.99   170.12   186.08
                              190.44   215.24   253.79   255.15   267.04
                              356.26   359.00   394.06   444.30   463.23
                              477.74   836.56   870.55   873.20  1183.68
                             1185.47  1224.82  1995.34  1995.53  2070.06
                             2346.37  2347.12  2383.10

 Zero-point correction=                           0.038422 (Hartree/Particle)
 Thermal correction to Energy=                    0.055269
 Thermal correction to Enthalpy=                  0.056213
 Thermal correction to Gibbs Free Energy=        -0.010668
 Sum of electronic and zero-point Energies=          -8456.050301
 Sum of electronic and thermal Energies=             -8456.033454
 Sum of electronic and thermal Enthalpies=           -8456.032510
 Sum of electronic and thermal Free Energies=        -8456.099391

                     E (Thermal)             CV                S
                      KCal/Mol        Cal/Mol-Kelvin    Cal/Mol-Kelvin
 Total                   34.682             50.435            140.763
 Electronic               0.000              0.000              0.000
 Translational            0.889              2.981             44.904
 Rotational               0.889              2.981             33.780
 Vibrational             32.904             44.473             62.078
 Vibration     1          0.593              1.985              6.269
 Vibration     2          0.597              1.972              4.347
 Vibration     3          0.597              1.971              4.306
 Vibration     4          0.602              1.956              3.648
 Vibration     5          0.602              1.954              3.598
 Vibration     6          0.603              1.953              3.572
 Vibration     7          0.604              1.949              3.445
 Vibration     8          0.606              1.941              3.272
 Vibration     9          0.608              1.934              3.129
 Vibration    10          0.612              1.924              2.956
 Vibration    11          0.612              1.921              2.911
 Vibration    12          0.618              1.903              2.677
 Vibration    13          0.628              1.871              2.366
 Vibration    14          0.628              1.870              2.356
 Vibration    15          0.632              1.860              2.271
 Vibration    16          0.661              1.767              1.748
 Vibration    17          0.662              1.764              1.734
 Vibration    18          0.676              1.722              1.572
 Vibration    19          0.698              1.657              1.369
 Vibration    20          0.707              1.631              1.300
 Vibration    21          0.714              1.612              1.250
 Vibration    22          0.938              1.071              0.483
 Vibration    23          0.964              1.021              0.441
 Vibration    24          0.966              1.017              0.438

 Normal termination of Gaussian 09 at Wed Dec  1 06:42:44 2021.
