 Gaussian 09, Revision D.01,
 Gaussian 09:  EM64L-G09RevD.01 24-Apr-2013

 ------------------------------------------------------------
 #b3lyp/gen pseudo=read opt freq=noraman scrf=(solvent=water)
 ------------------------------------------------------------

 ------------
 Estrutura 61
 ------------
 Symbolic Z-matrix:
 Charge = -2 Multiplicity = 1

 SCF Done:  E(RB3LYP) =  -3972.88820715     A.U. after   27 cycles
 SCF Done:  E(RB3LYP) =  -3973.00812635     A.U. after   18 cycles
 SCF Done:  E(RB3LYP) =  -3973.15317756     A.U. after   18 cycles
 SCF Done:  E(RB3LYP) =  -3973.26581094     A.U. after   16 cycles
 SCF Done:  E(RB3LYP) =  -3973.31163008     A.U. after   16 cycles
 SCF Done:  E(RB3LYP) =  -3973.32896302     A.U. after   15 cycles
 SCF Done:  E(RB3LYP) =  -3973.33277817     A.U. after   14 cycles
 SCF Done:  E(RB3LYP) =  -3973.33248242     A.U. after   14 cycles
 SCF Done:  E(RB3LYP) =  -3973.33325734     A.U. after   10 cycles
 SCF Done:  E(RB3LYP) =  -3973.33347702     A.U. after   14 cycles
 SCF Done:  E(RB3LYP) =  -3973.33640301     A.U. after   12 cycles
 SCF Done:  E(RB3LYP) =  -3973.33653050     A.U. after   13 cycles
 SCF Done:  E(RB3LYP) =  -3973.33660842     A.U. after   12 cycles
 SCF Done:  E(RB3LYP) =  -3973.33662668     A.U. after   11 cycles
 SCF Done:  E(RB3LYP) =  -3973.33662593     A.U. after   11 cycles
 SCF Done:  E(RB3LYP) =  -3973.33659753     A.U. after   10 cycles
 SCF Done:  E(RB3LYP) =  -3973.33662011     A.U. after   10 cycles
 SCF Done:  E(RB3LYP) =  -3973.33662404     A.U. after   10 cycles
 SCF Done:  E(RB3LYP) =  -3973.33662237     A.U. after    8 cycles
 Optimization completed.
    -- Stationary point found.
 Normal termination of Gaussian 09 at Wed Aug 18 13:30:33 2021.

 ------------------------------------------------------------------
 #N Geom=AllCheck Guess=TCheck SCRF=Check GenChk RB3LYP/ChkBas Freq
 ------------------------------------------------------------------

 Structure from the checkpoint file:  "/home/scr/diego/Gau-7196.chk"
 ------------
 Estrutura 61
 ------------
 Charge = -2 Multiplicity = 1

                         Standard orientation:
 ---------------------------------------------------------------------
 Center     Atomic      Atomic             Coordinates (Angstroms)
 Number     Number       Type             X           Y           Z
 ---------------------------------------------------------------------
      1         78           0       -0.201250    0.013344   -0.065972
      2          7           0        0.107929   -1.536388   -1.511911
      3          8           0        1.060622   -1.472231   -2.267470
      4          8           0       -0.699681   -2.451234   -1.530202
      5          7           0        0.304511    1.568142   -1.450637
      6          8           0       -0.415401    2.553412   -1.471820
      7          8           0        1.282478    1.441016   -2.164472
      8         17           0       -2.492740    0.166142   -0.832083
      9          7           0       -0.521408    1.569401    1.371684
     10          7           0       -0.718083   -1.543784    1.313405
     11          8           0       -0.016702   -2.542609    1.326494
     12          8           0       -1.696993   -1.407028    2.024125
     13          8           0        0.274961    2.494466    1.387064
     14          8           0       -1.483030    1.504650    2.115509
     15         35           0        2.211813   -0.149440    0.739419
 ---------------------------------------------------------------------

 SCF Done:  E(RB3LYP) =  -3973.33662237     A.U. after    1 cycles

 The electronic state is 1-A.
 Alpha  occ. eigenvalues -- -482.75177-101.45365 -62.43298 -56.26498 -56.26200
 Alpha  occ. eigenvalues --  -56.26196 -19.15031 -19.15020 -19.14990 -19.14989
 Alpha  occ. eigenvalues --  -19.14873 -19.14862 -19.14829 -19.14817 -14.51613
 Alpha  occ. eigenvalues --  -14.51611 -14.51567 -14.51562  -9.40564  -8.65021
 Alpha  occ. eigenvalues --   -7.17367  -7.16549  -7.16541  -6.48209  -6.47159
 Alpha  occ. eigenvalues --   -6.47146  -4.01706  -2.59650  -2.59365  -2.59354
 Alpha  occ. eigenvalues --   -2.58530  -2.58529  -2.22918  -2.22789  -2.22667
 Alpha  occ. eigenvalues --   -1.19418  -1.19161  -1.19050  -1.18993  -1.02404
 Alpha  occ. eigenvalues --   -1.02165  -1.02117  -1.01917  -0.75604  -0.72397
 Alpha  occ. eigenvalues --   -0.64052  -0.62754  -0.60751  -0.60673  -0.53729
 Alpha  occ. eigenvalues --   -0.52047  -0.51717  -0.51630  -0.51511  -0.49883
 Alpha  occ. eigenvalues --   -0.49466  -0.49444  -0.49316  -0.49096  -0.48950
 Alpha  occ. eigenvalues --   -0.48883  -0.40057  -0.36911  -0.36540  -0.34921
 Alpha  occ. eigenvalues --   -0.31743  -0.31012  -0.30787  -0.30660  -0.30061
 Alpha  occ. eigenvalues --   -0.29244  -0.29003  -0.28380  -0.28345  -0.27952
 Alpha  occ. eigenvalues --   -0.27105  -0.26894  -0.26409  -0.25143  -0.24910
 Alpha  occ. eigenvalues --   -0.23622  -0.22898
 Alpha virt. eigenvalues --   -0.10886  -0.06933  -0.04939  -0.04210  -0.03447
 Alpha virt. eigenvalues --   -0.03115   0.05086   0.06776   0.06986   0.11010
 Alpha virt. eigenvalues --    0.21893   0.24475   0.25654   0.27408   0.32300

 Mulliken charges:
               1
     1  Pt   0.003747
     2  N    0.155222
     3  O   -0.273378
     4  O   -0.280150
     5  N    0.155895
     6  O   -0.280285
     7  O   -0.272757
     8  Cl  -0.240891
     9  N    0.155601
    10  N    0.156545
    11  O   -0.281025
    12  O   -0.271715
    13  O   -0.281131
    14  O   -0.272049
    15  Br  -0.173629
 Sum of Mulliken charges =  -2.00000

 Dipole moment (field-independent basis, Debye):
    X=              2.0762    Y=             -0.1466    Z=              0.6818  Tot=              2.1902
 Quadrupole moment (field-independent basis, Debye-Ang):
   XX=           -152.1644   YY=           -162.0804   ZZ=           -153.1941
   XY=             -0.9045   XZ=              8.3113   YZ=             -0.4379

  Exact polarizability: 226.457  -0.422 208.323 -11.640   0.167 189.783
 Approx polarizability: 358.212  -0.952 315.647 -40.399   0.778 279.269

                      1                      2                      3
                      A                      A                      A
 Frequencies --     38.6276                53.5422                61.6448
 Red. masses --     17.7747                18.0948                16.2173
 Frc consts  --      0.0156                 0.0306                 0.0363
 IR Inten    --      0.6367                 2.4190                 0.0412

                      4                      5                      6
                      A                      A                      A
 Frequencies --     91.5324                95.6771               105.5846
 Red. masses --     23.5694                16.5848                25.5993
 Frc consts  --      0.1163                 0.0894                 0.1681
 IR Inten    --      0.1750                 0.0333                 0.0515

                      7                      8                      9
                      A                      A                      A
 Frequencies --    113.4406               120.5957               128.3192
 Red. masses --     16.5444                20.4446                24.5740
 Frc consts  --      0.1254                 0.1752                 0.2384
 IR Inten    --      0.0322                 1.5793                 1.6286

                     10                     11                     12
                      A                      A                      A
 Frequencies --    138.2470               139.9258               148.2504
 Red. masses --     28.8429                16.6686                20.6438
 Frc consts  --      0.3248                 0.1923                 0.2673
 IR Inten    --      0.2823                 0.1784                 1.0482

                     13                     14                     15
                      A                      A                      A
 Frequencies --    149.9380               200.9309               218.5794
 Red. masses --     17.1812                59.0300                15.4316
 Frc consts  --      0.2276                 1.4042                 0.4344
 IR Inten    --      1.0120                13.2793                 0.3943

                     16                     17                     18
                      A                      A                      A
 Frequencies --    239.7047               242.6455               254.5141
 Red. masses --     19.3454                19.4520                15.7481
 Frc consts  --      0.6549                 0.6748                 0.6010
 IR Inten    --     96.9831                97.2121                 2.7927

                     19                     20                     21
                      A                      A                      A
 Frequencies --    256.2408               284.1469               297.1397
 Red. masses --     15.6727                15.7400                31.5173
 Frc consts  --      0.6063                 0.7488                 1.6395
 IR Inten    --      1.1342                 0.8004                69.3222

                     22                     23                     24
                      A                      A                      A
 Frequencies --    333.8940               363.4488               516.3058
 Red. masses --     17.0514                20.5345                14.3661
 Frc consts  --      1.1200                 1.5982                 2.2563
 IR Inten    --      7.4839                10.5059                 0.0043

                     25                     26                     27
                      A                      A                      A
 Frequencies --    531.0928               606.4991               615.9245
 Red. masses --     14.3453                14.3766                14.6588
 Frc consts  --      2.3840                 3.1158                 3.2765
 IR Inten    --      0.0053                11.1551                48.9903

                     28                     29                     30
                      A                      A                      A
 Frequencies --    817.8423               838.6649               840.0849
 Red. masses --     15.3130                15.3290                15.3366
 Frc consts  --      6.0346                 6.3524                 6.3771
 IR Inten    --      0.0990               317.1734               336.0229

                     31                     32                     33
                      A                      A                      A
 Frequencies --    848.9335              1398.2202              1401.6437
 Red. masses --     15.3850                15.1512                15.0558
 Frc consts  --      6.5327                17.4521                17.4272
 IR Inten    --      2.9517                 2.0043              1122.6542

                     34                     35                     36
                      A                      A                      A
 Frequencies --   1405.2122              1452.5561              1592.5184
 Red. masses --     15.0543                15.0412                14.6653
 Frc consts  --     17.5143                18.6982                21.9134
 IR Inten    --   1435.3891                 3.7993                 0.0148

                     37                     38                     39
                      A                      A                      A
 Frequencies --   1617.2229              1622.9769              1625.6167
 Red. masses --     14.6356                14.6408                14.6548
 Frc consts  --     22.5528                22.7216                22.8175
 IR Inten    --    422.5436              1726.1660                 3.0917

 - Thermochemistry -
 -------------------
 Temperature   298.150 Kelvin.  Pressure   1.00000 Atm.
 Atom     1 has atomic number 78 and mass 194.96480

 Molecular mass:   492.82360 amu.
 Principal axes and moments of inertia in atomic units:
                           1         2         3
     Eigenvalues --  4573.332454879.953365142.24617
           X            0.99327   0.04231  -0.10779
           Y           -0.04141   0.99909   0.01051
           Z            0.10814  -0.00598   0.99412
 This molecule is an asymmetric top.
 Rotational symmetry number  1.
 Warning -- assumption of classical behavior for rotation
           may cause significant error
 Rotational temperatures (Kelvin)      0.01894     0.01775     0.01684
 Rotational constants (GHZ):           0.39462     0.36983     0.35096
 Zero-point vibrational energy     130440.1 (Joules/Mol)
                                   31.17594 (Kcal/Mol)
 Warning -- explicit consideration of  27 degrees of freedom as
           vibrations may cause significant error
 Vibrational temperatures:     55.58    77.04    88.69   131.69   137.66
          (Kelvin)            151.91   163.22   173.51   184.62   198.91
                              201.32   213.30   215.73   289.09   314.49
                              344.88   349.11   366.19   368.67   408.82
                              427.52   480.40   522.92   742.85   764.12
                              872.62   886.18  1176.69  1206.65  1208.69
                             1221.42  2011.72  2016.65  2021.78  2089.90
                             2291.28  2326.82  2335.10  2338.90

 Zero-point correction=                           0.049682 (Hartree/Particle)
 Thermal correction to Energy=                    0.067606
 Thermal correction to Enthalpy=                  0.068550
 Thermal correction to Gibbs Free Energy=         0.001071
 Sum of electronic and zero-point Energies=          -3973.286940
 Sum of electronic and thermal Energies=             -3973.269016
 Sum of electronic and thermal Enthalpies=           -3973.268072
 Sum of electronic and thermal Free Energies=        -3973.335551

                     E (Thermal)             CV                S
                      KCal/Mol        Cal/Mol-Kelvin    Cal/Mol-Kelvin
 Total                   42.423             55.812            142.022
 Electronic               0.000              0.000              0.000
 Translational            0.889              2.981             44.472
 Rotational               0.889              2.981             33.106
 Vibrational             40.646             49.851             64.443
 Vibration     1          0.594              1.981              5.328
 Vibration     2          0.596              1.976              4.682
 Vibration     3          0.597              1.973              4.404
 Vibration     4          0.602              1.955              3.627
 Vibration     5          0.603              1.952              3.541
 Vibration     6          0.605              1.945              3.349
 Vibration     7          0.607              1.938              3.209
 Vibration     8          0.609              1.932              3.091
 Vibration     9          0.611              1.925              2.971
 Vibration    10          0.614              1.915              2.828
 Vibration    11          0.615              1.913              2.805
 Vibration    12          0.618              1.905              2.695
 Vibration    13          0.618              1.903              2.673
 Vibration    14          0.638              1.839              2.125
 Vibration    15          0.646              1.813              1.971
 Vibration    16          0.657              1.780              1.805
 Vibration    17          0.659              1.775              1.783
 Vibration    18          0.665              1.755              1.699
 Vibration    19          0.666              1.752              1.687
 Vibration    20          0.683              1.703              1.509
 Vibration    21          0.691              1.679              1.433
 Vibration    22          0.715              1.608              1.241
 Vibration    23          0.737              1.548              1.107
 Vibration    24          0.871              1.214              0.619
 Vibration    25          0.886              1.181              0.585
 Vibration    26          0.965              1.018              0.439
 Vibration    27          0.976              0.998              0.423

 Normal termination of Gaussian 09 at Wed Aug 18 13:34:29 2021.
