 Gaussian 09, Revision D.01,
 Gaussian 09:  EM64L-G09RevD.01 24-Apr-2013

 ------------------------------------------------------------
 #b3lyp/gen pseudo=read opt freq=noraman scrf=(solvent=water)
 ------------------------------------------------------------

 ------------
 Estrutura 65
 ------------
 Symbolic Z-matrix:
 Charge = -2 Multiplicity = 1

 SCF Done:  E(RB3LYP) =  -6086.77293172     A.U. after   29 cycles
 SCF Done:  E(RB3LYP) =  -6086.87890780     A.U. after   18 cycles
 SCF Done:  E(RB3LYP) =  -6087.00177035     A.U. after   17 cycles
 SCF Done:  E(RB3LYP) =  -6087.09453149     A.U. after   15 cycles
 SCF Done:  E(RB3LYP) =  -6087.13324149     A.U. after   16 cycles
 SCF Done:  E(RB3LYP) =  -6087.13945082     A.U. after   14 cycles
 SCF Done:  E(RB3LYP) =  -6087.14433081     A.U. after   14 cycles
 SCF Done:  E(RB3LYP) =  -6087.14488868     A.U. after   15 cycles
 SCF Done:  E(RB3LYP) =  -6087.14505993     A.U. after   14 cycles
 SCF Done:  E(RB3LYP) =  -6087.14389850     A.U. after   14 cycles
 SCF Done:  E(RB3LYP) =  -6087.14709562     A.U. after   11 cycles
 SCF Done:  E(RB3LYP) =  -6087.14710580     A.U. after   12 cycles
 SCF Done:  E(RB3LYP) =  -6087.14711861     A.U. after   11 cycles
 SCF Done:  E(RB3LYP) =  -6087.14712252     A.U. after   11 cycles
 SCF Done:  E(RB3LYP) =  -6087.14593783     A.U. after   15 cycles
 SCF Done:  E(RB3LYP) =  -6087.14728224     A.U. after    8 cycles
 SCF Done:  E(RB3LYP) =  -6087.14728403     A.U. after    2 cycles
 SCF Done:  E(RB3LYP) =  -6087.14596447     A.U. after   13 cycles
 SCF Done:  E(RB3LYP) =  -6087.14728192     A.U. after    6 cycles
 Optimization completed.
    -- Stationary point found.
 Normal termination of Gaussian 09 at Wed Aug 18 17:56:17 2021.

 ------------------------------------------------------------------
 #N Geom=AllCheck Guess=TCheck SCRF=Check GenChk RB3LYP/ChkBas Freq
 ------------------------------------------------------------------

 Structure from the checkpoint file:  "/home/scr/diego/Gau-22333.chk"
 ------------
 Estrutura 65
 ------------
 Charge = -2 Multiplicity = 1

                         Standard orientation:
 ---------------------------------------------------------------------
 Center     Atomic      Atomic             Coordinates (Angstroms)
 Number     Number       Type             X           Y           Z
 ---------------------------------------------------------------------
      1         78           0        0.104051    0.136337    0.000657
      2          7           0        0.225380    0.121821   -2.129956
      3          8           0        1.068938    0.855620   -2.627218
      4          8           0       -0.490974   -0.608843   -2.788339
      5          7           0        2.177050    0.610747   -0.018298
      6          7           0        0.164538    0.089889    2.138569
      7          8           0       -0.777848   -0.338247    2.777841
      8          8           0        1.199510    0.480923    2.659087
      9          8           0        2.988676   -0.233275   -0.330555
     10          8           0        2.457402    1.763201    0.253811
     11          7           0       -0.338061    2.198049    0.029768
     12          8           0       -0.516529    2.767247   -1.027712
     13          8           0       -0.413983    2.731436    1.119860
     14         35           0       -2.480885   -0.178624   -0.067702
     15         35           0        0.542602   -2.424871    0.053816
 ---------------------------------------------------------------------

 SCF Done:  E(RB3LYP) =  -6087.14728192     A.U. after    1 cycles

 The electronic state is 1-A.
 Alpha  occ. eigenvalues -- -482.73954-482.73921 -62.42068 -62.42035 -56.25233
 Alpha  occ. eigenvalues --  -56.25204 -56.24989 -56.24985 -56.24956 -56.24948
 Alpha  occ. eigenvalues --  -19.16610 -19.16532 -19.16517 -19.16311 -19.15230
 Alpha  occ. eigenvalues --  -19.15114 -19.15054 -19.14929 -14.53737 -14.53467
 Alpha  occ. eigenvalues --  -14.51780 -14.51725  -8.63775  -8.63742  -6.46840
 Alpha  occ. eigenvalues --   -6.46818  -6.45979  -6.45962  -6.45946  -6.45918
 Alpha  occ. eigenvalues --   -4.01828  -2.58306  -2.58281  -2.58073  -2.58059
 Alpha  occ. eigenvalues --   -2.58048  -2.58026  -2.57383  -2.57383  -2.57341
 Alpha  occ. eigenvalues --   -2.57341  -2.23015  -2.22922  -2.22863  -1.21116
 Alpha  occ. eigenvalues --   -1.20831  -1.19306  -1.19222  -1.04242  -1.04035
 Alpha  occ. eigenvalues --   -1.02306  -1.02224  -0.71706  -0.70923  -0.64328
 Alpha  occ. eigenvalues --   -0.63374  -0.63034  -0.60930  -0.54678  -0.53837
 Alpha  occ. eigenvalues --   -0.53112  -0.52691  -0.51842  -0.50972  -0.50583
 Alpha  occ. eigenvalues --   -0.50464  -0.50097  -0.49778  -0.49338  -0.49173
 Alpha  occ. eigenvalues --   -0.36512  -0.36203  -0.35935  -0.35574  -0.34993
 Alpha  occ. eigenvalues --   -0.31763  -0.31248  -0.30594  -0.30389  -0.30116
 Alpha  occ. eigenvalues --   -0.29613  -0.29179  -0.28692  -0.27795  -0.26244
 Alpha  occ. eigenvalues --   -0.25489  -0.25264  -0.24718  -0.24564  -0.24214
 Alpha  occ. eigenvalues --   -0.23305
 Alpha virt. eigenvalues --   -0.10296  -0.08391  -0.05217  -0.04931  -0.04745
 Alpha virt. eigenvalues --   -0.03479   0.05817   0.05983   0.06881   0.10036
 Alpha virt. eigenvalues --    0.22020   0.22298   0.23565   0.27086   0.31472

 Mulliken charges:
               1
     1  Pt   0.013380
     2  N    0.152138
     3  O   -0.284855
     4  O   -0.276186
     5  N    0.158410
     6  N    0.149768
     7  O   -0.275907
     8  O   -0.284906
     9  O   -0.246434
    10  O   -0.255035
    11  N    0.150298
    12  O   -0.249657
    13  O   -0.251401
    14  Br  -0.248481
    15  Br  -0.251133
 Sum of Mulliken charges =  -2.00000

 Dipole moment (field-independent basis, Debye):
    X=             -0.9333    Y=             -1.0435    Z=             -0.0552  Tot=              1.4011
 Quadrupole moment (field-independent basis, Debye-Ang):
   XX=           -159.9099   YY=           -159.7034   ZZ=           -165.8876
   XY=             -3.3190   XZ=              0.4378   YZ=             -0.9136

  Exact polarizability: 238.284   7.566 231.433  -0.664   2.707 206.264
 Approx polarizability: 360.860  21.914 348.846  -1.651   8.799 310.558

 ******    1 imaginary frequencies (negative Signs) ******

                      1                      2                      3
                      A                      A                      A
 Frequencies --    -36.5083                32.1602                45.8931
 Red. masses --     16.4951                17.0367                16.0627
 Frc consts  --      0.0130                 0.0104                 0.0199
 IR Inten    --      0.2805                 0.7488                 0.0152

                      4                      5                      6
                      A                      A                      A
 Frequencies --     65.2921                77.1027                88.1167
 Red. masses --     18.8090                39.2157                22.8079
 Frc consts  --      0.0472                 0.1374                 0.1043
 IR Inten    --      0.1800                 1.0557                 0.2438

                      7                      8                      9
                      A                      A                      A
 Frequencies --     95.8184                99.9317               104.9743
 Red. masses --     23.9701                25.0032                18.0144
 Frc consts  --      0.1297                 0.1471                 0.1170
 IR Inten    --      0.4841                 0.2703                 1.8270

                     10                     11                     12
                      A                      A                      A
 Frequencies --    118.7384               120.2527               135.0087
 Red. masses --     20.0781                17.7725                19.1955
 Frc consts  --      0.1668                 0.1514                 0.2061
 IR Inten    --      0.4167                 1.4134                 1.6765

                     13                     14                     15
                      A                      A                      A
 Frequencies --    140.9098               179.1243               185.3838
 Red. masses --     18.5065                49.8791                52.2350
 Frc consts  --      0.2165                 0.9429                 1.0577
 IR Inten    --      0.2390                31.2217                31.5766

                     16                     17                     18
                      A                      A                      A
 Frequencies --    233.5030               245.5455               251.6976
 Red. masses --     16.1581                18.8129                17.9944
 Frc consts  --      0.5191                 0.6683                 0.6717
 IR Inten    --     10.6667                90.0625                40.1047

                     19                     20                     21
                      A                      A                      A
 Frequencies --    266.4154               272.8017               312.4534
 Red. masses --     16.2472                16.5340                16.6305
 Frc consts  --      0.6794                 0.7250                 0.9566
 IR Inten    --     17.8785                13.8529                 2.3936

                     22                     23                     24
                      A                      A                      A
 Frequencies --    322.5262               345.6141               532.4690
 Red. masses --     17.3471                18.5147                14.3768
 Frc consts  --      1.0632                 1.3030                 2.4016
 IR Inten    --      3.4333                 4.1078                 0.9912

                     25                     26                     27
                      A                      A                      A
 Frequencies --    597.8814               604.1530               613.3944
 Red. masses --     14.3906                14.3898                14.4791
 Frc consts  --      3.0308                 3.0946                 3.2098
 IR Inten    --     16.8003                21.8976                31.7736

                     28                     29                     30
                      A                      A                      A
 Frequencies --    821.5112               823.9516               841.2749
 Red. masses --     15.3013                15.2809                15.3501
 Frc consts  --      6.0842                 6.1123                 6.4008
 IR Inten    --    122.8205               258.2248               290.2051

                     31                     32                     33
                      A                      A                      A
 Frequencies --    853.4994              1388.0467              1393.6912
 Red. masses --     15.3761                15.1519                15.1423
 Frc consts  --      6.5994                17.1998                17.3291
 IR Inten    --    139.6700               871.7933               381.7107

                     34                     35                     36
                      A                      A                      A
 Frequencies --   1405.8472              1454.1694              1600.4585
 Red. masses --     15.0393                15.0286                14.6640
 Frc consts  --     17.5127                18.7240                22.1305
 IR Inten    --   1177.3991               568.3070               182.1997

                     37                     38                     39
                      A                      A                      A
 Frequencies --   1612.5872              1635.8988              1643.2799
 Red. masses --     14.6430                14.6454                14.6436
 Frc consts  --     22.4350                23.0921                23.2981
 IR Inten    --    950.4654               492.4712               560.8163

 - Thermochemistry -
 -------------------
 Temperature   298.150 Kelvin.  Pressure   1.00000 Atm.
 Atom     1 has atomic number 78 and mass 194.96480

 Molecular mass:   536.77309 amu.
 Principal axes and moments of inertia in atomic units:
                           1         2         3
     Eigenvalues --  5339.383675437.432676211.78354
           X            0.95605   0.29310  -0.00714
           Y           -0.29308   0.95608   0.00458
           Z            0.00816  -0.00229   0.99996
 This molecule is an asymmetric top.
 Rotational symmetry number  1.
 Warning -- assumption of classical behavior for rotation
           may cause significant error
 Rotational temperatures (Kelvin)      0.01622     0.01593     0.01394
 Rotational constants (GHZ):           0.33801     0.33191     0.29054
    1 imaginary frequencies ignored.
 Zero-point vibrational energy     128965.7 (Joules/Mol)
                                   30.82354 (Kcal/Mol)
 Warning -- explicit consideration of  26 degrees of freedom as
           vibrations may cause significant error
 Vibrational temperatures:     46.27    66.03    93.94   110.93   126.78
          (Kelvin)            137.86   143.78   151.03   170.84   173.02
                              194.25   202.74   257.72   266.73   335.96
                              353.28   362.14   383.31   392.50   449.55
                              464.04   497.26   766.10   860.22   869.24
                              882.54  1181.97  1185.48  1210.41  1227.99
                             1997.09  2005.21  2022.70  2092.22  2302.70
                             2320.15  2353.69  2364.31

 Zero-point correction=                           0.049120 (Hartree/Particle)
 Thermal correction to Energy=                    0.066674
 Thermal correction to Enthalpy=                  0.067618
 Thermal correction to Gibbs Free Energy=        -0.000255
 Sum of electronic and zero-point Energies=          -6087.098161
 Sum of electronic and thermal Energies=             -6087.080608
 Sum of electronic and thermal Enthalpies=           -6087.079664
 Sum of electronic and thermal Free Energies=        -6087.147537

                     E (Thermal)             CV                S
                      KCal/Mol        Cal/Mol-Kelvin    Cal/Mol-Kelvin
 Total                   41.839             53.955            142.851
 Electronic               0.000              0.000              0.000
 Translational            0.889              2.981             44.727
 Rotational               0.889              2.981             33.555
 Vibrational             40.061             47.993             64.568
 Vibration     1          0.594              1.983              5.692
 Vibration     2          0.595              1.979              4.987
 Vibration     3          0.597              1.971              4.290
 Vibration     4          0.599              1.964              3.963
 Vibration     5          0.601              1.958              3.701
 Vibration     6          0.603              1.952              3.538
 Vibration     7          0.604              1.949              3.456
 Vibration     8          0.605              1.945              3.360
 Vibration     9          0.609              1.934              3.121
 Vibration    10          0.609              1.932              3.096
 Vibration    11          0.613              1.918              2.873
 Vibration    12          0.615              1.912              2.791
 Vibration    13          0.629              1.868              2.338
 Vibration    14          0.631              1.860              2.274
 Vibration    15          0.654              1.790              1.852
 Vibration    16          0.660              1.770              1.762
 Vibration    17          0.664              1.760              1.719
 Vibration    18          0.672              1.735              1.619
 Vibration    19          0.676              1.723              1.578
 Vibration    20          0.701              1.650              1.349
 Vibration    21          0.708              1.630              1.297
 Vibration    22          0.724              1.584              1.186
 Vibration    23          0.887              1.178              0.582
 Vibration    24          0.956              1.036              0.453
 Vibration    25          0.963              1.023              0.443
 Vibration    26          0.973              1.004              0.427

 Normal termination of Gaussian 09 at Wed Aug 18 18:00:59 2021.
