 Gaussian 09, Revision D.01,
 Gaussian 09:  EM64L-G09RevD.01 24-Apr-2013

 ------------------------------------------------------------
 #b3lyp/gen pseudo=read opt freq=noraman scrf=(solvent=water)
 ------------------------------------------------------------

 ------------
 Estrutura 67
 ------------
 Symbolic Z-matrix:
 Charge = -2 Multiplicity = 1

 SCF Done:  E(RB3LYP) =  -3717.74270055     A.U. after   28 cycles
 SCF Done:  E(RB3LYP) =  -3717.85991960     A.U. after   18 cycles
 SCF Done:  E(RB3LYP) =  -3717.99014604     A.U. after   18 cycles
 SCF Done:  E(RB3LYP) =  -3718.11118046     A.U. after   15 cycles
 SCF Done:  E(RB3LYP) =  -3718.17329373     A.U. after   16 cycles
 SCF Done:  E(RB3LYP) =  -3718.19375374     A.U. after   14 cycles
 SCF Done:  E(RB3LYP) =  -3718.19774021     A.U. after   14 cycles
 SCF Done:  E(RB3LYP) =  -3718.19953883     A.U. after   14 cycles
 SCF Done:  E(RB3LYP) =  -3718.19793434     A.U. after   15 cycles
 SCF Done:  E(RB3LYP) =  -3718.20050689     A.U. after   11 cycles
 SCF Done:  E(RB3LYP) =  -3718.20669391     A.U. after   15 cycles
 SCF Done:  E(RB3LYP) =  -3718.20683097     A.U. after   13 cycles
 SCF Done:  E(RB3LYP) =  -3718.20683578     A.U. after   12 cycles
 SCF Done:  E(RB3LYP) =  -3718.20682866     A.U. after   12 cycles
 SCF Done:  E(RB3LYP) =  -3718.20684669     A.U. after   11 cycles
 SCF Done:  E(RB3LYP) =  -3718.20684713     A.U. after   10 cycles
 SCF Done:  E(RB3LYP) =  -3718.20684729     A.U. after   10 cycles
 SCF Done:  E(RB3LYP) =  -3718.20684758     A.U. after    9 cycles
 SCF Done:  E(RB3LYP) =  -3718.20684787     A.U. after    8 cycles
 Optimization completed.
    -- Stationary point found.
 Normal termination of Gaussian 09 at Wed Aug 18 22:29:42 2021.

 ------------------------------------------------------------------
 #N Geom=AllCheck Guess=TCheck SCRF=Check GenChk RB3LYP/ChkBas Freq
 ------------------------------------------------------------------

 Structure from the checkpoint file:  "/home/scr/diego/Gau-4083.chk"
 ------------
 Estrutura 67
 ------------
 Charge = -2 Multiplicity = 1

                         Standard orientation:
 ---------------------------------------------------------------------
 Center     Atomic      Atomic             Coordinates (Angstroms)
 Number     Number       Type             X           Y           Z
 ---------------------------------------------------------------------
      1         78           0       -0.128768   -0.009394   -0.014994
      2          7           0       -0.350071   -1.582688    1.433393
      3          8           0       -1.411585   -1.632357    2.036251
      4          8           0        0.550019   -2.384502    1.600694
      5          7           0       -2.229608   -0.049228   -0.255805
      6          7           0        0.022684    1.535411   -1.485452
      7          8           0        0.816825    1.390565   -2.398676
      8          8           0       -0.701568    2.508951   -1.371512
      9          8           0       -2.733707   -1.104179   -0.589222
     10          8           0       -2.850160    0.969449   -0.030684
     11          7           0       -0.320187    1.471209    1.516892
     12          8           0       -1.063649    1.244020    2.456410
     13          8           0        0.307443    2.508980    1.395341
     14         35           0        2.444200    0.075423    0.318817
     15          7           0        0.037616   -1.453632   -1.578045
     16          8           0        0.706648   -2.457885   -1.416318
     17          8           0       -0.573529   -1.212362   -2.608024
 ---------------------------------------------------------------------

 SCF Done:  E(RB3LYP) =  -3718.20684787     A.U. after    1 cycles

 The electronic state is 1-A.
 Alpha  occ. eigenvalues -- -482.73905 -62.42028 -56.25196 -56.24948 -56.24940
 Alpha  occ. eigenvalues --  -19.16689 -19.16528 -19.15308 -19.15278 -19.15221
 Alpha  occ. eigenvalues --  -19.15132 -19.15130 -19.15128 -19.15122 -19.15010
 Alpha  occ. eigenvalues --  -14.53635 -14.51922 -14.51847 -14.51805 -14.51670
 Alpha  occ. eigenvalues --   -8.63742  -6.46819  -6.45944  -6.45918  -4.02168
 Alpha  occ. eigenvalues --   -2.58284  -2.58049  -2.58028  -2.57341  -2.57340
 Alpha  occ. eigenvalues --   -2.23348  -2.23288  -2.23234  -1.21076  -1.19622
 Alpha  occ. eigenvalues --   -1.19324  -1.19319  -1.19190  -1.04280  -1.02683
 Alpha  occ. eigenvalues --   -1.02406  -1.02388  -1.02148  -0.71369  -0.64827
 Alpha  occ. eigenvalues --   -0.63341  -0.63095  -0.61001  -0.60957  -0.54736
 Alpha  occ. eigenvalues --   -0.53398  -0.53289  -0.52432  -0.51809  -0.51559
 Alpha  occ. eigenvalues --   -0.51400  -0.50673  -0.49893  -0.49634  -0.49435
 Alpha  occ. eigenvalues --   -0.49298  -0.49268  -0.49095  -0.49063  -0.36588
 Alpha  occ. eigenvalues --   -0.36142  -0.35766  -0.35403  -0.32293  -0.31676
 Alpha  occ. eigenvalues --   -0.30988  -0.30718  -0.30403  -0.29678  -0.29413
 Alpha  occ. eigenvalues --   -0.29136  -0.28596  -0.28093  -0.27952  -0.27399
 Alpha  occ. eigenvalues --   -0.25608  -0.25065  -0.24604  -0.23559  -0.23426
 Alpha virt. eigenvalues --   -0.09511  -0.07286  -0.05412  -0.04849  -0.04202
 Alpha virt. eigenvalues --   -0.04011  -0.03538   0.05717   0.06695   0.06978
 Alpha virt. eigenvalues --    0.11310   0.22963   0.23915   0.24924   0.26846

 Mulliken charges:
               1
     1  Pt   0.157535
     2  N    0.151531
     3  O   -0.276500
     4  O   -0.268099
     5  N    0.156228
     6  N    0.157023
     7  O   -0.275437
     8  O   -0.271789
     9  O   -0.251823
    10  O   -0.245809
    11  N    0.161161
    12  O   -0.276929
    13  O   -0.276894
    14  Br  -0.240266
    15  N    0.155172
    16  O   -0.275135
    17  O   -0.279968
 Sum of Mulliken charges =  -2.00000

 Dipole moment (field-independent basis, Debye):
    X=              1.0803    Y=              0.0448    Z=              0.1643  Tot=              1.0936
 Quadrupole moment (field-independent basis, Debye-Ang):
   XX=           -158.5173   YY=           -165.6452   ZZ=           -160.5708
   XY=              2.2859   XZ=              3.8880   YZ=              0.1409

  Exact polarizability: 234.903  -7.208 213.304  -5.837  -0.999 196.042
 Approx polarizability: 364.477 -24.157 339.174 -18.997  -2.422 291.471

                      1                      2                      3
                      A                      A                      A
 Frequencies --     17.4179                39.2512                49.6366
 Red. masses --     16.7005                16.8716                16.9058
 Frc consts  --      0.0030                 0.0153                 0.0245
 IR Inten    --      0.6579                 0.0503                 0.4078

                      4                      5                      6
                      A                      A                      A
 Frequencies --     74.8669                89.5124                94.2927
 Red. masses --     16.1881                19.5730                22.4252
 Frc consts  --      0.0535                 0.0924                 0.1175
 IR Inten    --      0.1934                 0.1533                 0.1405

                      7                      8                      9
                      A                      A                      A
 Frequencies --     98.7812               106.6293               118.5574
 Red. masses --     19.2635                17.1190                17.1860
 Frc consts  --      0.1107                 0.1147                 0.1423
 IR Inten    --      0.1895                 0.6748                 0.5211

                     10                     11                     12
                      A                      A                      A
 Frequencies --    124.6718               128.4259               138.0371
 Red. masses --     20.8632                18.4478                18.3544
 Frc consts  --      0.1911                 0.1793                 0.2061
 IR Inten    --      2.0914                 1.4254                 0.8384

                     13                     14                     15
                      A                      A                      A
 Frequencies --    140.5009               147.9036               183.8988
 Red. masses --     16.2338                16.4500                49.7198
 Frc consts  --      0.1888                 0.2120                 0.9907
 IR Inten    --      0.5241                 0.3419                31.6872

                     16                     17                     18
                      A                      A                      A
 Frequencies --    223.0988               238.9923               242.2217
 Red. masses --     15.4354                17.7258                17.2821
 Frc consts  --      0.4527                 0.5965                 0.5974
 IR Inten    --      0.5312                76.8631                42.6177

                     19                     20                     21
                      A                      A                      A
 Frequencies --    247.7768               259.4205               269.3508
 Red. masses --     18.3737                15.7314                16.4403
 Frc consts  --      0.6646                 0.6238                 0.7027
 IR Inten    --     79.4785                 5.9564                17.9985

                     22                     23                     24
                      A                      A                      A
 Frequencies --    290.4520               309.2635               318.0894
 Red. masses --     16.3015                17.5961                16.5263
 Frc consts  --      0.8103                 0.9916                 0.9852
 IR Inten    --      5.9233                13.9053                 2.1559

                     25                     26                     27
                      A                      A                      A
 Frequencies --    341.4805               522.8551               566.3532
 Red. masses --     18.6445                14.4524                14.5358
 Frc consts  --      1.2810                 2.3278                 2.7470
 IR Inten    --      7.2327                 2.1891                14.1025

                     28                     29                     30
                      A                      A                      A
 Frequencies --    584.7691               594.7888               606.1185
 Red. masses --     14.4275                14.3957                14.5711
 Frc consts  --      2.9068                 3.0006                 3.1540
 IR Inten    --      7.3421                16.2853                42.2428

                     31                     32                     33
                      A                      A                      A
 Frequencies --    818.3252               822.3741               839.5113
 Red. masses --     15.3141                15.2890                15.3362
 Frc consts  --      6.0422                 6.0921                 6.3683
 IR Inten    --      0.6724               176.9768               303.7016

                     34                     35                     36
                      A                      A                      A
 Frequencies --    839.9642               856.9321              1391.9437
 Red. masses --     15.3420                15.3964                15.1447
 Frc consts  --      6.3776                 6.6614                17.2883
 IR Inten    --    284.6865                64.0131               608.2756

                     37                     38                     39
                      A                      A                      A
 Frequencies --   1398.4531              1405.4536              1408.3334
 Red. masses --     15.1430                15.0495                15.0434
 Frc consts  --     17.4485                17.5148                17.5795
 IR Inten    --     23.9082              1148.0967              1199.1571

                     40                     41                     42
                      A                      A                      A
 Frequencies --   1467.6037              1594.8215              1611.1193
 Red. masses --     15.0091                14.6623                14.6514
 Frc consts  --     19.0468                21.9723                22.4070
 IR Inten    --    218.2360               115.5663               784.8986

                     43                     44                     45
                      A                      A                      A
 Frequencies --   1620.8772              1625.0311              1646.7947
 Red. masses --     14.6402                14.6510                14.6426
 Frc consts  --     22.6620                22.7950                23.3963
 IR Inten    --    915.3777               415.6690               419.2209

 - Thermochemistry -
 -------------------
 Temperature   298.150 Kelvin.  Pressure   1.00000 Atm.
 Atom     1 has atomic number 78 and mass 194.96480

 Molecular mass:   503.84765 amu.
 Principal axes and moments of inertia in atomic units:
                           1         2         3
     Eigenvalues --  4688.166195441.485065565.44038
           X            0.99957  -0.00816  -0.02832
           Y            0.00802   0.99996  -0.00493
           Z            0.02836   0.00470   0.99959
 This molecule is an asymmetric top.
 Rotational symmetry number  1.
 Warning -- assumption of classical behavior for rotation
           may cause significant error
 Rotational temperatures (Kelvin)      0.01847     0.01592     0.01556
 Rotational constants (GHZ):           0.38496     0.33166     0.32428
 Zero-point vibrational energy     158594.6 (Joules/Mol)
                                   37.90503 (Kcal/Mol)
 Warning -- explicit consideration of  30 degrees of freedom as
           vibrations may cause significant error
 Vibrational temperatures:     25.06    56.47    71.42   107.72   128.79
          (Kelvin)            135.67   142.12   153.42   170.58   179.37
                              184.78   198.60   202.15   212.80   264.59
                              320.99   343.86   348.50   356.50   373.25
                              387.54   417.90   444.96   457.66   491.31
                              752.27   814.85   841.35   855.77   872.07
                             1177.39  1183.21  1207.87  1208.52  1232.93
                             2002.69  2012.06  2022.13  2026.28  2111.55
                             2294.59  2318.04  2332.08  2338.05  2369.37

 Zero-point correction=                           0.060406 (Hartree/Particle)
 Thermal correction to Energy=                    0.080035
 Thermal correction to Enthalpy=                  0.080979
 Thermal correction to Gibbs Free Energy=         0.008704
 Sum of electronic and zero-point Energies=          -3718.146442
 Sum of electronic and thermal Energies=             -3718.126813
 Sum of electronic and thermal Enthalpies=           -3718.125869
 Sum of electronic and thermal Free Energies=        -3718.198144

                     E (Thermal)             CV                S
                      KCal/Mol        Cal/Mol-Kelvin    Cal/Mol-Kelvin
 Total                   50.222             61.395            152.115
 Electronic               0.000              0.000              0.000
 Translational            0.889              2.981             44.538
 Rotational               0.889              2.981             33.318
 Vibrational             48.445             55.433             74.259
 Vibration     1          0.593              1.986              6.909
 Vibration     2          0.594              1.981              5.297
 Vibration     3          0.595              1.978              4.832
 Vibration     4          0.599              1.966              4.021
 Vibration     5          0.602              1.957              3.671
 Vibration     6          0.603              1.953              3.569
 Vibration     7          0.604              1.950              3.478
 Vibration     8          0.606              1.944              3.329
 Vibration     9          0.609              1.934              3.124
 Vibration    10          0.610              1.928              3.027
 Vibration    11          0.611              1.925              2.969
 Vibration    12          0.614              1.915              2.831
 Vibration    13          0.615              1.913              2.797
 Vibration    14          0.617              1.905              2.699
 Vibration    15          0.631              1.862              2.288
 Vibration    16          0.649              1.806              1.934
 Vibration    17          0.657              1.781              1.810
 Vibration    18          0.658              1.776              1.787
 Vibration    19          0.661              1.766              1.746
 Vibration    20          0.668              1.747              1.666
 Vibration    21          0.674              1.730              1.600
 Vibration    22          0.686              1.692              1.471
 Vibration    23          0.699              1.656              1.366
 Vibration    24          0.704              1.639              1.320
 Vibration    25          0.721              1.593              1.205
 Vibration    26          0.878              1.199              0.603
 Vibration    27          0.922              1.104              0.511
 Vibration    28          0.942              1.064              0.477
 Vibration    29          0.952              1.043              0.459
 Vibration    30          0.965              1.019              0.439

 Normal termination of Gaussian 09 at Wed Aug 18 22:35:10 2021.
