 Gaussian 09, Revision A.02,
 Gaussian 09:  EM64L-G09RevA.02 11-Jun-2009

 ------------------------------------------------------------
 #b3lyp/gen pseudo=read opt freq=noraman scrf=(solvent=water)
 ------------------------------------------------------------

 ------------
 Estrutura 66
 ------------
 Symbolic Z-matrix:
 Charge = -2 Multiplicity = 1

 SCF Done:  E(RB3LYP) =  -1604.39935979     A.U. after   22 cycles
 SCF Done:  E(RB3LYP) =  -1604.39934288     A.U. after   12 cycles
 SCF Done:  E(RB3LYP) =  -1604.39929009     A.U. after   12 cycles
 SCF Done:  E(RB3LYP) =  -1604.39934131     A.U. after   12 cycles
 SCF Done:  E(RB3LYP) =  -1604.39936897     A.U. after   12 cycles
 SCF Done:  E(RB3LYP) =  -1604.39933993     A.U. after   11 cycles
 SCF Done:  E(RB3LYP) =  -1604.39937350     A.U. after   12 cycles
 SCF Done:  E(RB3LYP) =  -1604.39937194     A.U. after   10 cycles
 SCF Done:  E(RB3LYP) =  -1604.39936763     A.U. after   11 cycles
 SCF Done:  E(RB3LYP) =  -1604.39937344     A.U. after   11 cycles
 SCF Done:  E(RB3LYP) =  -1604.39937052     A.U. after   10 cycles
 SCF Done:  E(RB3LYP) =  -1604.39937314     A.U. after   10 cycles
 SCF Done:  E(RB3LYP) =  -1604.39937197     A.U. after   10 cycles
 SCF Done:  E(RB3LYP) =  -1604.39936772     A.U. after   11 cycles
 SCF Done:  E(RB3LYP) =  -1604.39936777     A.U. after   10 cycles
 SCF Done:  E(RB3LYP) =  -1604.39936976     A.U. after   10 cycles
 Optimization completed.
    -- Stationary point found.
 Normal termination of Gaussian 09 at Wed Dec  1 07:11:50 2021.

 ------------------------------------------------------------------
 #N Geom=AllCheck Guess=TCheck SCRF=Check GenChk RB3LYP/ChkBas Freq
 ------------------------------------------------------------------

 Estrutura 66
 ------------
 Redundant internal coordinates taken from checkpoint file:
 /scr/guest/Gau-18945.chk
 Charge = -2 Multiplicity = 1

                         Standard orientation:
 ---------------------------------------------------------------------
 Center     Atomic      Atomic             Coordinates (Angstroms)
 Number     Number       Type             X           Y           Z
 ---------------------------------------------------------------------
      1         78           0       -0.005122    0.023650   -0.083342
      2          7           0       -1.685649   -1.296522   -0.319895
      3          8           0       -1.813698   -2.176858    0.518119
      4          8           0       -2.456054   -1.143104   -1.249051
      5          7           0        0.036558   -0.516895    1.949113
      6          7           0        1.665273    1.321122    0.220673
      7          8           0        1.607343    2.455191   -0.220322
      8          8           0        2.623744    0.884873    0.834729
      9          8           0       -0.943385   -0.254051    2.620334
     10          8           0        1.023298   -1.086354    2.370374
     11          7           0        1.318556   -1.578793   -0.573750
     12          8           0        1.004793   -2.712211   -0.249540
     13          8           0        2.350533   -1.311835   -1.164581
     14          7           0       -1.312593    1.635517    0.404638
     15          8           0       -2.368558    1.753951   -0.191191
     16          8           0       -0.951741    2.394941    1.290024
     17         17           0       -0.021513    0.633409   -2.455056
 ---------------------------------------------------------------------

 SCF Done:  E(RB3LYP) =  -1604.39936976     A.U. after    1 cycles

 The electronic state is 1-A.
 Alpha  occ. eigenvalues -- -101.44073 -19.16503 -19.16347 -19.15314 -19.15289
 Alpha  occ. eigenvalues --  -19.15269 -19.15187 -19.15186 -19.15159 -19.15152
 Alpha  occ. eigenvalues --  -19.15016 -14.53557 -14.51948 -14.51875 -14.51827
 Alpha  occ. eigenvalues --  -14.51656  -9.39289  -7.16018  -7.15317  -7.15301
 Alpha  occ. eigenvalues --   -4.02363  -2.23532  -2.23486  -2.23435  -1.20925
 Alpha  occ. eigenvalues --   -1.19643  -1.19354  -1.19348  -1.19198  -1.04088
 Alpha  occ. eigenvalues --   -1.02710  -1.02448  -1.02416  -1.02187  -0.74506
 Alpha  occ. eigenvalues --   -0.64897  -0.63420  -0.63147  -0.61044  -0.60969
 Alpha  occ. eigenvalues --   -0.54675  -0.53386  -0.53270  -0.52512  -0.51891
 Alpha  occ. eigenvalues --   -0.51624  -0.51374  -0.50558  -0.49889  -0.49620
 Alpha  occ. eigenvalues --   -0.49465  -0.49312  -0.49290  -0.49133  -0.49118
 Alpha  occ. eigenvalues --   -0.36846  -0.36561  -0.36422  -0.35583  -0.32377
 Alpha  occ. eigenvalues --   -0.31572  -0.30963  -0.30738  -0.30396  -0.29704
 Alpha  occ. eigenvalues --   -0.29470  -0.29212  -0.28598  -0.28234  -0.27976
 Alpha  occ. eigenvalues --   -0.27554  -0.26151  -0.25932  -0.25699  -0.23537
 Alpha  occ. eigenvalues --   -0.23473
 Alpha virt. eigenvalues --   -0.08922  -0.07324  -0.05320  -0.04796  -0.04309
 Alpha virt. eigenvalues --   -0.03999  -0.03581   0.05859   0.06662   0.06882
 Alpha virt. eigenvalues --    0.12089   0.23877   0.24928   0.26061   0.27262

 Mulliken atomic charges:
              1
     1  Pt   0.221811
     2  N    0.154071
     3  O   -0.279140
     4  O   -0.269420
     5  N    0.146006
     6  N    0.157432
     7  O   -0.274444
     8  O   -0.273104
     9  O   -0.255209
    10  O   -0.249161
    11  N    0.159524
    12  O   -0.279188
    13  O   -0.277736
    14  N    0.155692
    15  O   -0.277567
    16  O   -0.279614
    17  Cl  -0.279955
 Sum of Mulliken atomic charges =  -2.00000

 Dipole moment (field-independent basis, Debye):
    X=              0.0796    Y=             -0.1329    Z=              0.7741  Tot=              0.7895
 Quadrupole moment (field-independent basis, Debye-Ang):
   XX=           -159.1170   YY=           -156.8221   ZZ=           -149.6720
   XY=              0.6296   XZ=             -1.4038   YZ=              1.8383

  Exact polarizability: 206.573  -1.531 197.895   5.966 -10.165 193.358
 Approx polarizability: 327.217  -6.510 303.548  19.147 -29.168 300.484

                     1                      2                      3
                     A                      A                      A
 Frequencies --    23.9279                38.4809                49.8847
 Red. masses --    16.0116                16.6433                16.1083
 Frc consts  --     0.0054                 0.0145                 0.0236
 IR Inten    --     0.3693                 0.2465                 0.5734

                     4                      5                      6
                     A                      A                      A
 Frequencies --    71.3708                93.1434               101.7058
 Red. masses --    16.4250                16.1010                16.4285
 Frc consts  --     0.0493                 0.0823                 0.1001
 IR Inten    --     0.1964                 0.0638                 1.0701

                     7                      8                      9
                     A                      A                      A
 Frequencies --   114.2330               117.5690               124.9660
 Red. masses --    19.0128                16.8077                17.2235
 Frc consts  --     0.1462                 0.1369                 0.1585
 IR Inten    --     0.7866                 0.2136                 0.2156

                    10                     11                     12
                     A                      A                      A
 Frequencies --   128.8185               132.3900               136.6901
 Red. masses --    19.4114                18.0487                21.7140
 Frc consts  --     0.1898                 0.1864                 0.2390
 IR Inten    --     2.9656                 1.7767                 1.3422

                    13                     14                     15
                     A                      A                      A
 Frequencies --   141.9586               148.6682               224.6306
 Red. masses --    22.6715                17.7150                15.4326
 Frc consts  --     0.2692                 0.2307                 0.4588
 IR Inten    --     1.1267                 0.3298                 0.4768

                    16                     17                     18
                     A                      A                      A
 Frequencies --   240.9911               241.4006               248.6419
 Red. masses --    16.6592                17.3888                19.4103
 Frc consts  --     0.5700                 0.5970                 0.7070
 IR Inten    --    37.7532                54.7697                99.1501

                    19                     20                     21
                     A                      A                      A
 Frequencies --   260.6295               273.6493               277.4264
 Red. masses --    15.8152                16.2258                22.4697
 Frc consts  --     0.6330                 0.7159                 1.0189
 IR Inten    --     5.3183                 9.2661                39.8938

                    22                     23                     24
                     A                      A                      A
 Frequencies --   292.5960               312.6230               325.7040
 Red. masses --    19.3718                17.6768                16.9605
 Frc consts  --     0.9771                 1.0179                 1.0601
 IR Inten    --    40.5744                12.7692                 6.5455

                    25                     26                     27
                     A                      A                      A
 Frequencies --   344.2576               525.6769               563.2359
 Red. masses --    19.7264                14.4606                14.5204
 Frc consts  --     1.3774                 2.3544                 2.7140
 IR Inten    --    16.3911                 2.0910                12.0342

                    28                     29                     30
                     A                      A                      A
 Frequencies --   588.9847               601.4190               609.2199
 Red. masses --    14.4352                14.4743                14.5085
 Frc consts  --     2.9504                 3.0846                 3.1727
 IR Inten    --     7.3602                19.9241                34.6391

                    31                     32                     33
                     A                      A                      A
 Frequencies --   817.7436               824.9413               839.3128
 Red. masses --    15.3167                15.2999                15.3370
 Frc consts  --     6.0346                 6.1346                 6.3656
 IR Inten    --     0.2742               155.0156               297.2360

                    34                     35                     36
                     A                      A                      A
 Frequencies --   839.6974               857.9584              1393.9320
 Red. masses --    15.3465                15.4021                15.1365
 Frc consts  --     6.3754                 6.6798                17.3284
 IR Inten    --   281.2530                48.3127               503.7479

                    37                     38                     39
                     A                      A                      A
 Frequencies --  1398.9626              1405.9714              1409.4135
 Red. masses --    15.1404                15.0501                15.0394
 Frc consts  --    17.4582                17.5284                17.6019
 IR Inten    --    50.4793              1152.8324              1205.2361

                    40                     41                     42
                     A                      A                      A
 Frequencies --  1470.2816              1595.6775              1611.1089
 Red. masses --    15.0047                14.6618                14.6500
 Frc consts  --    19.1108                21.9952                22.4046
 IR Inten    --   159.9642                97.6081               855.1066

                    43                     44                     45
                     A                      A                      A
 Frequencies --  1620.7891              1623.3578              1643.5476
 Red. masses --    14.6420                14.6494                14.6421
 Frc consts  --    22.6623                22.7456                23.3033
 IR Inten    --  1180.5401               108.5469               448.0882

 - Thermochemistry -
 -------------------
 Temperature   298.150 Kelvin.  Pressure   1.00000 Atm.
 Atom     1 has atomic number 78 and mass 194.96480

 Molecular mass:   459.89817 amu.
 Principal axes and moments of inertia in atomic units:
                           1         2         3
     Eigenvalues --  4338.550454400.925204704.21682
           X            1.00000   0.00100  -0.00062
           Y           -0.00099   0.99983   0.01851
           Z            0.00063  -0.01851   0.99983
 This molecule is an asymmetric top.
 Rotational symmetry number  1.
 Warning -- assumption of classical behavior for rotation
           may cause significant error
 Rotational temperatures (Kelvin)      0.01996     0.01968     0.01841
 Rotational constants (GHZ):           0.41598     0.41008     0.38364
 Zero-point vibrational energy     159746.9 (Joules/Mol)
                                   38.18041 (Kcal/Mol)
 Warning -- explicit consideration of  30 degrees of freedom as
           vibrations may cause significant error
 Vibrational temperatures:     34.43    55.37    71.77   102.69   134.01
          (Kelvin)            146.33   164.36   169.16   179.80   185.34
                              190.48   196.67   204.25   213.90   323.19
                              346.73   347.32   357.74   374.99   393.72
                              399.15   420.98   449.79   468.61   495.31
                              756.33   810.37   847.42   865.31   876.53
                             1176.55  1186.91  1207.58  1208.14  1234.41
                             2005.55  2012.79  2022.88  2027.83  2115.40
                             2295.82  2318.02  2331.95  2335.65  2364.70

 Zero-point correction=                           0.060844 (Hartree/Particle)
 Thermal correction to Energy=                    0.080191
 Thermal correction to Enthalpy=                  0.081135
 Thermal correction to Gibbs Free Energy=         0.010321
 Sum of electronic and zero-point Energies=          -1604.338525
 Sum of electronic and thermal Energies=             -1604.319179
 Sum of electronic and thermal Enthalpies=           -1604.318235
 Sum of electronic and thermal Free Energies=        -1604.389048

                     E (Thermal)             CV                S
                      KCal/Mol        Cal/Mol-Kelvin    Cal/Mol-Kelvin
 Total                   50.321             61.124            149.040
 Electronic               0.000              0.000              0.000
 Translational            0.889              2.981             44.266
 Rotational               0.889              2.981             32.863
 Vibrational             48.543             55.163             71.911
 Vibration     1          0.593              1.985              6.278
 Vibration     2          0.594              1.982              5.336
 Vibration     3          0.595              1.978              4.822
 Vibration     4          0.598              1.968              4.115
 Vibration     5          0.602              1.954              3.593
 Vibration     6          0.604              1.948              3.421
 Vibration     7          0.607              1.938              3.196
 Vibration     8          0.608              1.935              3.140
 Vibration     9          0.610              1.928              3.022
 Vibration    10          0.611              1.924              2.964
 Vibration    11          0.613              1.921              2.911
 Vibration    12          0.614              1.917              2.850
 Vibration    13          0.615              1.911              2.777
 Vibration    14          0.618              1.904              2.689
 Vibration    15          0.649              1.804              1.921
 Vibration    16          0.658              1.778              1.796
 Vibration    17          0.658              1.777              1.793
 Vibration    18          0.662              1.765              1.740
 Vibration    19          0.669              1.745              1.658
 Vibration    20          0.676              1.722              1.573
 Vibration    21          0.678              1.715              1.549
 Vibration    22          0.688              1.688              1.459
 Vibration    23          0.701              1.650              1.348
 Vibration    24          0.710              1.624              1.281
 Vibration    25          0.723              1.587              1.192
 Vibration    26          0.881              1.193              0.597
 Vibration    27          0.919              1.111              0.517
 Vibration    28          0.946              1.055              0.469
 Vibration    29          0.960              1.029              0.447
 Vibration    30          0.968              1.012              0.434

 Optimization completed.
    -- Stationary point found.
 Normal termination of Gaussian 09 at Wed Dec  1 07:20:08 2021.
