 Gaussian 09, Revision D.01,
 Gaussian 09:  EM64L-G09RevD.01 24-Apr-2013

 ------------------------------------------------------------
 #b3lyp/gen pseudo=read opt freq=noraman scrf=(solvent=water)
 ------------------------------------------------------------

 ------------
 Estrutura 55
 ------------
 Symbolic Z-matrix:
 Charge = -2 Multiplicity = 1

 SCF Done:  E(RB3LYP) =  -8455.65692530     A.U. after   25 cycles
 SCF Done:  E(RB3LYP) =  -8455.78292484     A.U. after   19 cycles
 SCF Done:  E(RB3LYP) =  -8455.92561626     A.U. after   16 cycles
 SCF Done:  E(RB3LYP) =  -8456.02970007     A.U. after   16 cycles
 SCF Done:  E(RB3LYP) =  -8456.06334708     A.U. after   16 cycles
 SCF Done:  E(RB3LYP) =  -8456.07089370     A.U. after   14 cycles
 SCF Done:  E(RB3LYP) =  -8456.07580344     A.U. after   14 cycles
 SCF Done:  E(RB3LYP) =  -8456.07703797     A.U. after   15 cycles
 SCF Done:  E(RB3LYP) =  -8456.08181818     A.U. after   14 cycles
 SCF Done:  E(RB3LYP) =  -8456.08389244     A.U. after   14 cycles
 SCF Done:  E(RB3LYP) =  -8456.08543174     A.U. after   12 cycles
 SCF Done:  E(RB3LYP) =  -8456.08550065     A.U. after   12 cycles
 SCF Done:  E(RB3LYP) =  -8456.08552316     A.U. after   12 cycles
 SCF Done:  E(RB3LYP) =  -8456.08553435     A.U. after   11 cycles
 SCF Done:  E(RB3LYP) =  -8456.08554935     A.U. after   11 cycles
 SCF Done:  E(RB3LYP) =  -8456.08555694     A.U. after   11 cycles
 SCF Done:  E(RB3LYP) =  -8456.08555978     A.U. after   11 cycles
 SCF Done:  E(RB3LYP) =  -8456.08555551     A.U. after    9 cycles
 SCF Done:  E(RB3LYP) =  -8456.08555350     A.U. after    9 cycles
 Optimization completed.
    -- Stationary point found.
 Normal termination of Gaussian 09 at Wed Aug 18 09:30:13 2021.

 ------------------------------------------------------------------
 #N Geom=AllCheck Guess=TCheck SCRF=Check GenChk RB3LYP/ChkBas Freq
 ------------------------------------------------------------------

 Structure from the checkpoint file:  "/home/scr/diego/Gau-19383.chk"
 ------------
 Estrutura 55
 ------------
 Charge = -2 Multiplicity = 1

                         Standard orientation:
 ---------------------------------------------------------------------
 Center     Atomic      Atomic             Coordinates (Angstroms)
 Number     Number       Type             X           Y           Z
 ---------------------------------------------------------------------
      1         78           0       -0.002082    0.123357    0.015879
      2          7           0       -0.049290    2.236161    0.165663
      3          7           0       -0.054301   -0.102805    2.152307
      4          8           0       -0.638755    2.744116    1.096402
      5          8           0        0.532121    2.860314   -0.699676
      6          8           0       -0.953993    0.431515    2.776600
      7          8           0        0.810935   -0.779333    2.683665
      8         35           0        2.552523    0.309842    0.099756
      9         35           0       -2.558686    0.030530   -0.089537
     10         35           0        0.059963   -2.475556   -0.193428
     11          7           0        0.038036    0.314492   -2.115128
     12          8           0       -0.703413    1.133998   -2.632202
     13          8           0        0.795388   -0.393782   -2.755561
 ---------------------------------------------------------------------

 SCF Done:  E(RB3LYP) =  -8456.08555350     A.U. after    1 cycles

 The electronic state is 1-A.
 Alpha  occ. eigenvalues -- -482.74992-482.74991-482.73566 -62.43107 -62.43105
 Alpha  occ. eigenvalues --  -62.41680 -56.26307 -56.26304 -56.26010 -56.26009
 Alpha  occ. eigenvalues --  -56.26005 -56.26003 -56.24846 -56.24600 -56.24597
 Alpha  occ. eigenvalues --  -19.16358 -19.16262 -19.14799 -19.14744 -19.14717
 Alpha  occ. eigenvalues --  -19.14585 -14.53496 -14.51431 -14.51328  -8.64823
 Alpha  occ. eigenvalues --   -8.64821  -8.63385  -6.48007  -6.47999  -6.46967
 Alpha  occ. eigenvalues --   -6.46963  -6.46947  -6.46945  -6.46452  -6.45583
 Alpha  occ. eigenvalues --   -6.45576  -4.01179  -2.59448  -2.59441  -2.59165
 Alpha  occ. eigenvalues --   -2.59163  -2.59153  -2.59146  -2.58336  -2.58335
 Alpha  occ. eigenvalues --   -2.58332  -2.58332  -2.57917  -2.57679  -2.57674
 Alpha  occ. eigenvalues --   -2.56991  -2.56991  -2.22335  -2.22261  -2.22138
 Alpha  occ. eigenvalues --   -1.20861  -1.18981  -1.18860  -1.03988  -1.01933
 Alpha  occ. eigenvalues --   -1.01798  -0.72780  -0.71770  -0.70695  -0.63592
 Alpha  occ. eigenvalues --   -0.62772  -0.60495  -0.53982  -0.52557  -0.52055
 Alpha  occ. eigenvalues --   -0.50668  -0.50416  -0.50239  -0.49761  -0.48985
 Alpha  occ. eigenvalues --   -0.48806  -0.39054  -0.36596  -0.36276  -0.35111
 Alpha  occ. eigenvalues --   -0.34842  -0.31534  -0.30734  -0.30157  -0.29876
 Alpha  occ. eigenvalues --   -0.29677  -0.28754  -0.27948  -0.27345  -0.26551
 Alpha  occ. eigenvalues --   -0.26058  -0.25161  -0.24660  -0.24605  -0.24190
 Alpha  occ. eigenvalues --   -0.23844  -0.23112
 Alpha virt. eigenvalues --   -0.11592  -0.08282  -0.04958  -0.04348  -0.03111
 Alpha virt. eigenvalues --    0.05101   0.06132   0.06932   0.09259   0.21005
 Alpha virt. eigenvalues --    0.22016   0.23266   0.27282   0.31793   0.33494

 Mulliken charges:
               1
     1  Pt  -0.200255
     2  N    0.152480
     3  N    0.149389
     4  O   -0.245263
     5  O   -0.249065
     6  O   -0.272687
     7  O   -0.280570
     8  Br  -0.193726
     9  Br  -0.187908
    10  Br  -0.267373
    11  N    0.156760
    12  O   -0.281502
    13  O   -0.280280
 Sum of Mulliken charges =  -2.00000

 Dipole moment (field-independent basis, Debye):
    X=             -0.0402    Y=             -0.4014    Z=              0.0401  Tot=              0.4054
 Quadrupole moment (field-independent basis, Debye-Ang):
   XX=           -156.3907   YY=           -161.5625   ZZ=           -168.5449
   XY=              4.2747   XZ=              2.5966   YZ=              1.6119

  Exact polarizability: 256.377  -9.075 234.179  -5.666  -0.063 210.837
 Approx polarizability: 374.407 -30.085 347.558 -18.993  -0.142 317.443

                      1                      2                      3
                      A                      A                      A
 Frequencies --     38.5450                46.6559                79.3593
 Red. masses --     21.4261                18.7953                40.1884
 Frc consts  --      0.0188                 0.0241                 0.1491
 IR Inten    --      0.6711                 0.7929                 0.7869

                      4                      5                      6
                      A                      A                      A
 Frequencies --     83.9559                90.8025                99.2827
 Red. masses --     27.3462                22.5115                25.9442
 Frc consts  --      0.1136                 0.1094                 0.1507
 IR Inten    --      1.4459                 0.1974                 0.1333

                      7                      8                      9
                      A                      A                      A
 Frequencies --    104.2310               112.9327               115.6379
 Red. masses --     23.1446                30.2359                23.2428
 Frc consts  --      0.1481                 0.2272                 0.1831
 IR Inten    --      0.3389                 0.0446                 0.2392

                     10                     11                     12
                      A                      A                      A
 Frequencies --    128.7491               136.3030               156.1282
 Red. masses --     20.4113                20.0702                16.9091
 Frc consts  --      0.1993                 0.2197                 0.2428
 IR Inten    --      0.4760                 1.8229                 0.3290

                     13                     14                     15
                      A                      A                      A
 Frequencies --    175.7091               181.0864               212.3480
 Red. masses --     59.1360                59.1210                58.5993
 Frc consts  --      1.0757                 1.1423                 1.5568
 IR Inten    --      9.3259                21.1157                57.4800

                     16                     17                     18
                      A                      A                      A
 Frequencies --    230.1465               240.2106               262.7122
 Red. masses --     16.8624                19.7127                16.8919
 Frc consts  --      0.5262                 0.6702                 0.6869
 IR Inten    --     16.1276                96.7061                20.3218

                     19                     20                     21
                      A                      A                      A
 Frequencies --    268.9818               320.7272               347.2780
 Red. masses --     16.0180                16.7694                18.4742
 Frc consts  --      0.6828                 1.0163                 1.3127
 IR Inten    --      6.1399                 4.1415                 3.9981

                     22                     23                     24
                      A                      A                      A
 Frequencies --    526.7412               595.9026               613.8891
 Red. masses --     14.3790                14.3900                14.5460
 Frc consts  --      2.3506                 3.0107                 3.2298
 IR Inten    --      0.7682                15.9077                37.3651

                     25                     26                     27
                      A                      A                      A
 Frequencies --    821.4988               840.4851               845.7168
 Red. masses --     15.2857                15.3311                15.3505
 Frc consts  --      6.0778                 6.3809                 6.4688
 IR Inten    --    163.4410               339.5153               118.7512

                     28                     29                     30
                      A                      A                      A
 Frequencies --   1390.8876              1401.5781              1436.7716
 Red. masses --     15.1630                15.0597                15.0704
 Frc consts  --     17.2831                17.4301                18.3295
 IR Inten    --    652.5257              1297.7192               261.5330

                     31                     32                     33
                      A                      A                      A
 Frequencies --   1600.5301              1615.8338              1647.7382
 Red. masses --     14.6598                14.6370                14.6438
 Frc consts  --     22.1262                22.5162                23.4250
 IR Inten    --     51.0891              1032.3334               511.0653

 - Thermochemistry -
 -------------------
 Temperature   298.150 Kelvin.  Pressure   1.00000 Atm.
 Atom     1 has atomic number 78 and mass 194.96480

 Molecular mass:   569.69852 amu.
 Principal axes and moments of inertia in atomic units:
                           1         2         3
     Eigenvalues --  5294.132276126.407356920.82479
           X            0.99972  -0.02201  -0.00904
           Y            0.02183   0.99955  -0.02038
           Z            0.00948   0.02017   0.99975
 This molecule is an asymmetric top.
 Rotational symmetry number  1.
 Warning -- assumption of classical behavior for rotation
           may cause significant error
 Rotational temperatures (Kelvin)      0.01636     0.01414     0.01251
 Rotational constants (GHZ):           0.34089     0.29458     0.26077
 Zero-point vibrational energy     100303.0 (Joules/Mol)
                                   23.97300 (Kcal/Mol)
 Warning -- explicit consideration of  24 degrees of freedom as
           vibrations may cause significant error
 Vibrational temperatures:     55.46    67.13   114.18   120.79   130.64
          (Kelvin)            142.85   149.96   162.48   166.38   185.24
                              196.11   224.63   252.81   260.54   305.52
                              331.13   345.61   377.98   387.00   461.45
                              499.65   757.86   857.37   883.25  1181.95
                             1209.27  1216.80  2001.17  2016.56  2067.19
                             2302.80  2324.82  2370.72

 Zero-point correction=                           0.038203 (Hartree/Particle)
 Thermal correction to Energy=                    0.055082
 Thermal correction to Enthalpy=                  0.056026
 Thermal correction to Gibbs Free Energy=        -0.010575
 Sum of electronic and zero-point Energies=          -8456.047350
 Sum of electronic and thermal Energies=             -8456.030472
 Sum of electronic and thermal Enthalpies=           -8456.029528
 Sum of electronic and thermal Free Energies=        -8456.096129

                     E (Thermal)             CV                S
                      KCal/Mol        Cal/Mol-Kelvin    Cal/Mol-Kelvin
 Total                   34.564             50.597            140.173
 Electronic               0.000              0.000              0.000
 Translational            0.889              2.981             44.904
 Rotational               0.889              2.981             33.773
 Vibrational             32.787             44.636             61.496
 Vibration     1          0.594              1.981              5.333
 Vibration     2          0.595              1.979              4.954
 Vibration     3          0.600              1.963              3.907
 Vibration     4          0.601              1.960              3.796
 Vibration     5          0.602              1.956              3.643
 Vibration     6          0.604              1.950              3.468
 Vibration     7          0.605              1.946              3.374
 Vibration     8          0.607              1.939              3.218
 Vibration     9          0.608              1.936              3.172
 Vibration    10          0.611              1.924              2.965
 Vibration    11          0.614              1.917              2.855
 Vibration    12          0.620              1.896              2.596
 Vibration    13          0.628              1.872              2.374
 Vibration    14          0.630              1.865              2.317
 Vibration    15          0.643              1.822              2.023
 Vibration    16          0.652              1.795              1.878
 Vibration    17          0.657              1.779              1.801
 Vibration    18          0.670              1.741              1.644
 Vibration    19          0.673              1.730              1.603
 Vibration    20          0.706              1.634              1.306
 Vibration    21          0.725              1.581              1.179
 Vibration    22          0.882              1.191              0.595
 Vibration    23          0.954              1.041              0.457
 Vibration    24          0.973              1.002              0.426

 Normal termination of Gaussian 09 at Wed Aug 18 09:34:05 2021.
