 Gaussian 09, Revision D.01,
 Gaussian 09:  EM64L-G09RevD.01 24-Apr-2013

 ------------------------------------------------------------
 #b3lyp/gen pseudo=read opt freq=noraman scrf=(solvent=water)
 ------------------------------------------------------------

 ------------
 Estrutura 60
 ------------
 Symbolic Z-matrix:
 Charge = -2 Multiplicity = 1

 SCF Done:  E(RB3LYP) =  -1859.08195621     A.U. after   27 cycles
 SCF Done:  E(RB3LYP) =  -1859.20256195     A.U. after   17 cycles
 SCF Done:  E(RB3LYP) =  -1859.34730908     A.U. after   18 cycles
 SCF Done:  E(RB3LYP) =  -1859.45902961     A.U. after   16 cycles
 SCF Done:  E(RB3LYP) =  -1859.50485638     A.U. after   16 cycles
 SCF Done:  E(RB3LYP) =  -1859.52142185     A.U. after   15 cycles
 SCF Done:  E(RB3LYP) =  -1859.52494663     A.U. after   14 cycles
 SCF Done:  E(RB3LYP) =  -1859.52537703     A.U. after   13 cycles
 SCF Done:  E(RB3LYP) =  -1859.52497084     A.U. after   14 cycles
 SCF Done:  E(RB3LYP) =  -1859.52594948     A.U. after   10 cycles
 SCF Done:  E(RB3LYP) =  -1859.52832516     A.U. after   13 cycles
 SCF Done:  E(RB3LYP) =  -1859.52831291     A.U. after   12 cycles
 SCF Done:  E(RB3LYP) =  -1859.52834050     A.U. after   12 cycles
 SCF Done:  E(RB3LYP) =  -1859.52834783     A.U. after   11 cycles
 SCF Done:  E(RB3LYP) =  -1859.52833030     A.U. after   12 cycles
 SCF Done:  E(RB3LYP) =  -1859.52834920     A.U. after   11 cycles
 SCF Done:  E(RB3LYP) =  -1859.52833478     A.U. after   11 cycles
 SCF Done:  E(RB3LYP) =  -1859.52834811     A.U. after   11 cycles
 SCF Done:  E(RB3LYP) =  -1859.52834791     A.U. after   10 cycles
 Optimization completed.
    -- Stationary point found.
 Normal termination of Gaussian 09 at Wed Aug 18 12:57:58 2021.

 ------------------------------------------------------------------
 #N Geom=AllCheck Guess=TCheck SCRF=Check GenChk RB3LYP/ChkBas Freq
 ------------------------------------------------------------------

 Structure from the checkpoint file:  "/home/scr/diego/Gau-3350.chk"
 ------------
 Estrutura 60
 ------------
 Charge = -2 Multiplicity = 1

                         Standard orientation:
 ---------------------------------------------------------------------
 Center     Atomic      Atomic             Coordinates (Angstroms)
 Number     Number       Type             X           Y           Z
 ---------------------------------------------------------------------
      1         78           0       -0.005627    0.000000    0.000073
      2          7           0       -1.548024   -1.429326   -0.387402
      3          8           0       -1.413731   -2.570019    0.017532
      4          8           0       -2.524603   -1.051360   -1.012795
      5          7           0        1.563883   -1.409960   -0.360322
      6          8           0        2.477878   -1.054219   -1.088115
      7          8           0        1.527774   -2.498903    0.182026
      8         17           0       -0.030355   -0.528543    2.352741
      9         17           0       -0.030872    0.528694   -2.352920
     10          7           0        1.567650    1.406502    0.359258
     11          7           0       -1.544900    1.432690    0.388217
     12          8           0       -2.523358    1.055392    1.010997
     13          8           0       -1.407406    2.574122   -0.013548
     14          8           0        2.481348    1.049080    1.086418
     15          8           0        1.533285    2.495662   -0.182627
 ---------------------------------------------------------------------

 SCF Done:  E(RB3LYP) =  -1859.52834791     A.U. after    1 cycles

 The electronic state is 1-A.
 Alpha  occ. eigenvalues -- -101.45420-101.45417 -19.15016 -19.15015 -19.15006
 Alpha  occ. eigenvalues --  -19.15001 -19.14901 -19.14900 -19.14802 -19.14798
 Alpha  occ. eigenvalues --  -14.51632 -14.51630 -14.51539 -14.51534  -9.40627
 Alpha  occ. eigenvalues --   -9.40623  -7.17435  -7.17432  -7.16608  -7.16605
 Alpha  occ. eigenvalues --   -7.16600  -7.16597  -4.01890  -2.23075  -2.23022
 Alpha  occ. eigenvalues --   -2.22831  -1.19429  -1.19160  -1.19088  -1.18977
 Alpha  occ. eigenvalues --   -1.02419  -1.02154  -1.02149  -1.01945  -0.76174
 Alpha  occ. eigenvalues --   -0.75095  -0.64118  -0.62808  -0.60768  -0.60682
 Alpha  occ. eigenvalues --   -0.53712  -0.52113  -0.51868  -0.51551  -0.51528
 Alpha  occ. eigenvalues --   -0.49913  -0.49490  -0.49423  -0.49305  -0.49095
 Alpha  occ. eigenvalues --   -0.48961  -0.48900  -0.40670  -0.37238  -0.36935
 Alpha  occ. eigenvalues --   -0.35015  -0.31793  -0.31505  -0.30780  -0.30666
 Alpha  occ. eigenvalues --   -0.30245  -0.29312  -0.29016  -0.28744  -0.28629
 Alpha  occ. eigenvalues --   -0.27931  -0.27299  -0.27142  -0.26723  -0.25734
 Alpha  occ. eigenvalues --   -0.25556  -0.23606  -0.22908
 Alpha virt. eigenvalues --   -0.10380  -0.06884  -0.04929  -0.04214  -0.03402
 Alpha virt. eigenvalues --   -0.03162   0.05233   0.06723   0.06911   0.11601
 Alpha virt. eigenvalues --    0.22815   0.25626   0.27071   0.27908   0.32329

 Mulliken charges:
               1
     1  Pt   0.076576
     2  N    0.153682
     3  O   -0.273982
     4  O   -0.279313
     5  N    0.152071
     6  O   -0.283052
     7  O   -0.271861
     8  Cl  -0.235804
     9  Cl  -0.235884
    10  N    0.152257
    11  N    0.153750
    12  O   -0.279323
    13  O   -0.274098
    14  O   -0.283087
    15  O   -0.271932
 Sum of Mulliken charges =  -2.00000

 Dipole moment (field-independent basis, Debye):
    X=             -0.1599    Y=             -0.0024    Z=              0.0012  Tot=              0.1600
 Quadrupole moment (field-independent basis, Debye-Ang):
   XX=           -155.7941   YY=           -153.7494   ZZ=           -138.7654
   XY=             -0.0049   XZ=              0.0025   YZ=              3.5593

  Exact polarizability: 201.670   0.030 201.378   0.004 -17.234 177.627
 Approx polarizability: 303.863   0.089 321.953   0.002 -49.436 268.136

                      1                      2                      3
                      A                      A                      A
 Frequencies --     16.7428                45.4247                46.8467
 Red. masses --     16.5524                17.1446                16.2976
 Frc consts  --      0.0027                 0.0208                 0.0211
 IR Inten    --      0.0786                 1.5258                 0.8202

                      4                      5                      6
                      A                      A                      A
 Frequencies --     74.6822                91.6083               106.1992
 Red. masses --     16.7082                17.6245                21.2469
 Frc consts  --      0.0549                 0.0871                 0.1412
 IR Inten    --      0.0073                 0.0628                 1.2540

                      7                      8                      9
                      A                      A                      A
 Frequencies --    106.7528               111.5359               124.2655
 Red. masses --     18.2483                19.7640                21.5066
 Frc consts  --      0.1225                 0.1449                 0.1957
 IR Inten    --      0.2852                 0.2501                 1.2669

                     10                     11                     12
                      A                      A                      A
 Frequencies --    124.8774               136.2614               138.0760
 Red. masses --     18.8664                20.6720                26.8969
 Frc consts  --      0.1733                 0.2261                 0.3021
 IR Inten    --      0.7007                 0.0226                 1.0255

                     13                     14                     15
                      A                      A                      A
 Frequencies --    141.3150               216.9583               237.0640
 Red. masses --     23.3795                15.4006                19.8082
 Frc consts  --      0.2751                 0.4271                 0.6559
 IR Inten    --      0.9152                 0.0668                95.3894

                     16                     17                     18
                      A                      A                      A
 Frequencies --    240.3736               248.1683               253.1417
 Red. masses --     19.6254                15.6869                15.7777
 Frc consts  --      0.6681                 0.5692                 0.5957
 IR Inten    --    103.8125                 0.1260                 2.8078

                     19                     20                     21
                      A                      A                      A
 Frequencies --    278.4521               293.9519               301.6616
 Red. masses --     15.6486                33.5290                28.6194
 Frc consts  --      0.7149                 1.7070                 1.5344
 IR Inten    --      0.1920                 0.0261                87.1062

                     22                     23                     24
                      A                      A                      A
 Frequencies --    332.4243               366.0681               516.4852
 Red. masses --     17.0391                23.0180                14.3748
 Frc consts  --      1.1094                 1.8174                 2.2593
 IR Inten    --      7.4386                21.5759                 0.0972

                     25                     26                     27
                      A                      A                      A
 Frequencies --    532.5086               607.9725               616.5527
 Red. masses --     14.3385                14.3761                14.6633
 Frc consts  --      2.3956                 3.1308                 3.2841
 IR Inten    --      0.1331                12.7440                45.0018

                     28                     29                     30
                      A                      A                      A
 Frequencies --    815.7923               837.2042               838.7037
 Red. masses --     15.3137                15.3287                15.3375
 Frc consts  --      6.0047                 6.3302                 6.3565
 IR Inten    --      1.1681               305.4180               325.6373

                     31                     32                     33
                      A                      A                      A
 Frequencies --    847.5786              1398.2715              1402.8946
 Red. masses --     15.3819                15.1465                15.0555
 Frc consts  --      6.5106                17.4480                17.4580
 IR Inten    --      3.1103                24.0853              1099.3629

                     34                     35                     36
                      A                      A                      A
 Frequencies --   1406.3551              1454.1681              1594.1888
 Red. masses --     15.0507                15.0382                14.6646
 Frc consts  --     17.5387                18.7359                21.9584
 IR Inten    --   1430.0023                 0.0271                 5.9048

                     37                     38                     39
                      A                      A                      A
 Frequencies --   1617.1296              1623.7146              1626.0790
 Red. masses --     14.6370                14.6402                14.6533
 Frc consts  --     22.5524                22.7414                22.8280
 IR Inten    --    354.8871              1747.2390                59.8638

 - Thermochemistry -
 -------------------
 Temperature   298.150 Kelvin.  Pressure   1.00000 Atm.
 Atom     1 has atomic number 78 and mass 194.96480

 Molecular mass:   448.87412 amu.
 Principal axes and moments of inertia in atomic units:
                           1         2         3
     Eigenvalues --  3860.623384075.944254604.02688
           X            1.00000   0.00000  -0.00001
           Y            0.00000   0.99987   0.01637
           Z            0.00001  -0.01637   0.99987
 This molecule is an asymmetric top.
 Rotational symmetry number  1.
 Warning -- assumption of classical behavior for rotation
           may cause significant error
 Rotational temperatures (Kelvin)      0.02244     0.02125     0.01881
 Rotational constants (GHZ):           0.46747     0.44278     0.39199
 Zero-point vibrational energy     130204.2 (Joules/Mol)
                                   31.11956 (Kcal/Mol)
 Warning -- explicit consideration of  27 degrees of freedom as
           vibrations may cause significant error
 Vibrational temperatures:     24.09    65.36    67.40   107.45   131.80
          (Kelvin)            152.80   153.59   160.48   178.79   179.67
                              196.05   198.66   203.32   312.15   341.08
                              345.84   357.06   364.21   400.63   422.93
                              434.02   478.28   526.69   743.11   766.16
                              874.74   887.08  1173.74  1204.55  1206.71
                             1219.48  2011.80  2018.45  2023.43  2092.22
                             2293.68  2326.69  2336.16  2339.56

 Zero-point correction=                           0.049592 (Hartree/Particle)
 Thermal correction to Energy=                    0.067643
 Thermal correction to Enthalpy=                  0.068587
 Thermal correction to Gibbs Free Energy=        -0.000096
 Sum of electronic and zero-point Energies=          -1859.478756
 Sum of electronic and thermal Energies=             -1859.460705
 Sum of electronic and thermal Enthalpies=           -1859.459761
 Sum of electronic and thermal Free Energies=        -1859.528444

                     E (Thermal)             CV                S
                      KCal/Mol        Cal/Mol-Kelvin    Cal/Mol-Kelvin
 Total                   42.447             55.765            144.556
 Electronic               0.000              0.000              0.000
 Translational            0.889              2.981             44.194
 Rotational               0.889              2.981             32.649
 Vibrational             40.669             49.804             67.713
 Vibration     1          0.593              1.986              6.987
 Vibration     2          0.595              1.979              5.007
 Vibration     3          0.595              1.979              4.946
 Vibration     4          0.599              1.966              4.026
 Vibration     5          0.602              1.955              3.625
 Vibration     6          0.605              1.944              3.337
 Vibration     7          0.606              1.944              3.327
 Vibration     8          0.607              1.940              3.242
 Vibration     9          0.610              1.929              3.033
 Vibration    10          0.610              1.928              3.023
 Vibration    11          0.614              1.917              2.856
 Vibration    12          0.614              1.915              2.830
 Vibration    13          0.615              1.912              2.786
 Vibration    14          0.646              1.815              1.984
 Vibration    15          0.656              1.784              1.825
 Vibration    16          0.657              1.779              1.800
 Vibration    17          0.662              1.766              1.744
 Vibration    18          0.664              1.757              1.709
 Vibration    19          0.679              1.713              1.543
 Vibration    20          0.689              1.685              1.451
 Vibration    21          0.694              1.671              1.408
 Vibration    22          0.714              1.611              1.248
 Vibration    23          0.739              1.542              1.096
 Vibration    24          0.872              1.213              0.618
 Vibration    25          0.887              1.178              0.582
 Vibration    26          0.967              1.015              0.436
 Vibration    27          0.976              0.997              0.422

 Normal termination of Gaussian 09 at Wed Aug 18 13:01:17 2021.
