 Gaussian 09, Revision D.01,
 Gaussian 09:  EM64L-G09RevD.01 24-Apr-2013

 ------------------------------------------------------------
 #b3lyp/gen pseudo=read opt freq=noraman scrf=(solvent=water)
 ------------------------------------------------------------

 ------------
 Estrutura 56
 ------------
 Symbolic Z-matrix:
 Charge = -2 Multiplicity = 1

 SCF Done:  E(RB3LYP) =  -2114.30591650     A.U. after   24 cycles
 SCF Done:  E(RB3LYP) =  -2114.41625128     A.U. after   17 cycles
 SCF Done:  E(RB3LYP) =  -2114.53774703     A.U. after   18 cycles
 SCF Done:  E(RB3LYP) =  -2114.62581550     A.U. after   16 cycles
 SCF Done:  E(RB3LYP) =  -2114.65457320     A.U. after   16 cycles
 SCF Done:  E(RB3LYP) =  -2114.65745441     A.U. after   14 cycles
 SCF Done:  E(RB3LYP) =  -2114.66225712     A.U. after   14 cycles
 SCF Done:  E(RB3LYP) =  -2114.66117895     A.U. after   16 cycles
 SCF Done:  E(RB3LYP) =  -2114.66318738     A.U. after   11 cycles
 SCF Done:  E(RB3LYP) =  -2114.66334737     A.U. after   15 cycles
 SCF Done:  E(RB3LYP) =  -2114.66568224     A.U. after    6 cycles
 SCF Done:  E(RB3LYP) =  -2114.66524848     A.U. after   12 cycles
 SCF Done:  E(RB3LYP) =  -2114.66568219     A.U. after    5 cycles
 SCF Done:  E(RB3LYP) =  -2114.66538631     A.U. after   12 cycles
 SCF Done:  E(RB3LYP) =  -2114.63966311     A.U. after   16 cycles
 SCF Done:  E(RB3LYP) =  -2114.66567773     A.U. after    8 cycles
 SCF Done:  E(RB3LYP) =  -2114.66568214     A.U. after    1 cycles
 SCF Done:  E(RB3LYP) =  -2114.66534621     A.U. after   12 cycles
 SCF Done:  E(RB3LYP) =  -2114.66568143     A.U. after    6 cycles
 Optimization completed.
    -- Stationary point found.
 Normal termination of Gaussian 09 at Wed Aug 18 10:03:53 2021.

 ------------------------------------------------------------------
 #N Geom=AllCheck Guess=TCheck SCRF=Check GenChk RB3LYP/ChkBas Freq
 ------------------------------------------------------------------

 Structure from the checkpoint file:  "/home/scr/diego/Gau-21306.chk"
 ------------
 Estrutura 56
 ------------
 Charge = -2 Multiplicity = 1

                         Standard orientation:
 ---------------------------------------------------------------------
 Center     Atomic      Atomic             Coordinates (Angstroms)
 Number     Number       Type             X           Y           Z
 ---------------------------------------------------------------------
      1         78           0       -0.008957    0.014784    0.149928
      2          7           0        0.854766   -1.630360   -0.845677
      3          8           0        2.053524   -1.640251   -1.031688
      4          8           0        0.099277   -2.512892   -1.208084
      5          7           0       -1.579784   -0.058734   -1.239530
      6          8           0       -1.258670   -0.205808   -2.406483
      7          8           0       -2.726036    0.043697   -0.858266
      8         17           0       -1.184881   -1.570722    1.615528
      9         17           0       -1.032159    1.951114    1.266658
     10         17           0        1.852188    0.095363    1.749178
     11          7           0        0.980458    1.358581   -1.137509
     12          8           0        0.288077    2.178878   -1.711131
     13          8           0        2.182961    1.270454   -1.267914
 ---------------------------------------------------------------------

 SCF Done:  E(RB3LYP) =  -2114.66568143     A.U. after    1 cycles

 The electronic state is 1-A.
 Alpha  occ. eigenvalues -- -101.43650-101.43631-101.43527 -19.16217 -19.16212
 Alpha  occ. eigenvalues --  -19.16209 -19.15999 -19.15987 -19.15966 -14.53291
 Alpha  occ. eigenvalues --  -14.53284 -14.53227  -9.38855  -9.38838  -9.38738
 Alpha  occ. eigenvalues --   -7.15577  -7.15560  -7.15463  -7.14882  -7.14879
 Alpha  occ. eigenvalues --   -7.14866  -7.14863  -7.14771  -7.14753  -4.01805
 Alpha  occ. eigenvalues --   -2.22922  -2.22859  -2.22808  -1.20861  -1.20538
 Alpha  occ. eigenvalues --   -1.20442  -1.03970  -1.03616  -1.03550  -0.74724
 Alpha  occ. eigenvalues --   -0.73615  -0.73476  -0.63970  -0.63047  -0.62970
 Alpha  occ. eigenvalues --   -0.54576  -0.53465  -0.53159  -0.52074  -0.52030
 Alpha  occ. eigenvalues --   -0.50466  -0.50331  -0.50123  -0.50058  -0.37223
 Alpha  occ. eigenvalues --   -0.36600  -0.36523  -0.36330  -0.36240  -0.34246
 Alpha  occ. eigenvalues --   -0.31642  -0.31569  -0.30427  -0.29941  -0.28960
 Alpha  occ. eigenvalues --   -0.28404  -0.26826  -0.26532  -0.26396  -0.25525
 Alpha  occ. eigenvalues --   -0.25398  -0.25138  -0.25082  -0.25021  -0.24919
 Alpha virt. eigenvalues --   -0.09189  -0.09164  -0.05088  -0.04970  -0.04372
 Alpha virt. eigenvalues --    0.05544   0.06162   0.06577   0.11087   0.23638
 Alpha virt. eigenvalues --    0.25203   0.25784   0.28776   0.31682   0.31972

 Mulliken charges:
               1
     1  Pt   0.018614
     2  N    0.140709
     3  O   -0.247221
     4  O   -0.257844
     5  N    0.149781
     6  O   -0.265343
     7  O   -0.254660
     8  Cl  -0.308198
     9  Cl  -0.307865
    10  Cl  -0.304188
    11  N    0.140521
    12  O   -0.258672
    13  O   -0.245634
 Sum of Mulliken charges =  -2.00000

 Dipole moment (field-independent basis, Debye):
    X=              0.3535    Y=             -0.2006    Z=             -1.8984  Tot=              1.9414
 Quadrupole moment (field-independent basis, Debye-Ang):
   XX=           -146.3109   YY=           -140.4616   ZZ=           -142.0669
   XY=              0.2215   XZ=              0.5363   YZ=             -0.1939

  Exact polarizability: 201.415  -0.723 181.091  -2.196   0.019 179.119
 Approx polarizability: 325.824  -2.520 264.693  -7.627   0.667 266.672

                      1                      2                      3
                      A                      A                      A
 Frequencies --     34.3652                74.4386                78.0293
 Red. masses --     17.1537                17.9377                17.7452
 Frc consts  --      0.0119                 0.0586                 0.0637
 IR Inten    --      0.0805                 0.1189                 0.1989

                      4                      5                      6
                      A                      A                      A
 Frequencies --    111.5901               114.1800               121.2851
 Red. masses --     21.6482                19.4044                22.3523
 Frc consts  --      0.1588                 0.1490                 0.1937
 IR Inten    --      0.1171                 0.3895                 0.1794

                      7                      8                      9
                      A                      A                      A
 Frequencies --    123.3912               134.4780               139.8222
 Red. masses --     28.0008                21.3250                28.5244
 Frc consts  --      0.2512                 0.2272                 0.3286
 IR Inten    --      0.0490                 0.2248                 1.9976

                     10                     11                     12
                      A                      A                      A
 Frequencies --    142.1837               149.6232               150.7805
 Red. masses --     27.1797                20.5563                20.0834
 Frc consts  --      0.3237                 0.2711                 0.2690
 IR Inten    --      0.9268                 0.1388                 0.1035

                     13                     14                     15
                      A                      A                      A
 Frequencies --    249.0434               252.8494               269.0402
 Red. masses --     18.0666                17.3604                29.4784
 Frc consts  --      0.6602                 0.6539                 1.2572
 IR Inten    --      0.2650                 2.7840                85.1494

                     16                     17                     18
                      A                      A                      A
 Frequencies --    275.1898               280.8503               282.1998
 Red. masses --     31.3495                31.8857                18.8650
 Frc consts  --      1.3988                 1.4818                 0.8852
 IR Inten    --    104.2571               114.1930                 5.5000

                     19                     20                     21
                      A                      A                      A
 Frequencies --    318.9125               332.2265               344.0709
 Red. masses --     17.1385                18.2245                18.2059
 Frc consts  --      1.0270                 1.1852                 1.2699
 IR Inten    --      8.2600                 9.0963                 8.3949

                     22                     23                     24
                      A                      A                      A
 Frequencies --    592.3507               616.7179               618.0522
 Red. masses --     14.4520                14.4758                14.3800
 Frc consts  --      2.9877                 3.2439                 3.2364
 IR Inten    --     20.6533                23.8519                 9.2803

                     25                     26                     27
                      A                      A                      A
 Frequencies --    825.6233               826.5430               854.4173
 Red. masses --     15.2768                15.2847                15.3648
 Frc consts  --      6.1354                 6.1523                 6.6087
 IR Inten    --    252.8845               239.0648               158.5002

                     28                     29                     30
                      A                      A                      A
 Frequencies --   1389.6866              1390.3180              1446.0084
 Red. masses --     15.1391                15.1519                15.0416
 Frc consts  --     17.2260                17.2563                18.5304
 IR Inten    --    625.4295               874.0215               727.8911

                     31                     32                     33
                      A                      A                      A
 Frequencies --   1629.6443              1630.8827              1655.4752
 Red. masses --     14.6506                14.6461                14.6367
 Frc consts  --     22.9241                22.9518                23.6341
 IR Inten    --   1035.3864               158.9093               423.0531

 - Thermochemistry -
 -------------------
 Temperature   298.150 Kelvin.  Pressure   1.00000 Atm.
 Atom     1 has atomic number 78 and mass 194.96480

 Molecular mass:   437.85007 amu.
 Principal axes and moments of inertia in atomic units:
                           1         2         3
     Eigenvalues --  3766.897873856.011353869.94958
           X            1.00000  -0.00078   0.00062
           Y            0.00080   0.99916  -0.04097
           Z           -0.00058   0.04097   0.99916
 This molecule is an asymmetric top.
 Rotational symmetry number  1.
 Warning -- assumption of classical behavior for rotation
           may cause significant error
 Rotational temperatures (Kelvin)      0.02299     0.02246     0.02238
 Rotational constants (GHZ):           0.47911     0.46803     0.46635
 Zero-point vibrational energy     104399.7 (Joules/Mol)
                                   24.95213 (Kcal/Mol)
 Warning -- explicit consideration of  24 degrees of freedom as
           vibrations may cause significant error
 Vibrational temperatures:     49.44   107.10   112.27   160.55   164.28
          (Kelvin)            174.50   177.53   193.48   201.17   204.57
                              215.27   216.94   358.32   363.79   387.09
                              395.94   404.08   406.02   458.84   478.00
                              495.04   852.26   887.32   889.24  1187.89
                             1189.21  1229.31  1999.45  2000.35  2080.48
                             2344.69  2346.47  2381.86

 Zero-point correction=                           0.039764 (Hartree/Particle)
 Thermal correction to Energy=                    0.055726
 Thermal correction to Enthalpy=                  0.056670
 Thermal correction to Gibbs Free Energy=        -0.005930
 Sum of electronic and zero-point Energies=          -2114.625918
 Sum of electronic and thermal Energies=             -2114.609955
 Sum of electronic and thermal Enthalpies=           -2114.609011
 Sum of electronic and thermal Free Energies=        -2114.671611

                     E (Thermal)             CV                S
                      KCal/Mol        Cal/Mol-Kelvin    Cal/Mol-Kelvin
 Total                   34.969             49.652            131.752
 Electronic               0.000              0.000              0.000
 Translational            0.889              2.981             44.120
 Rotational               0.889              2.981             32.397
 Vibrational             33.191             43.690             55.236
 Vibration     1          0.594              1.983              5.560
 Vibration     2          0.599              1.966              4.032
 Vibration     3          0.599              1.964              3.940
 Vibration     4          0.607              1.940              3.241
 Vibration     5          0.607              1.938              3.197
 Vibration     6          0.609              1.931              3.080
 Vibration     7          0.610              1.930              3.047
 Vibration     8          0.613              1.919              2.881
 Vibration     9          0.615              1.913              2.806
 Vibration    10          0.616              1.911              2.774
 Vibration    11          0.618              1.903              2.677
 Vibration    12          0.618              1.902              2.662
 Vibration    13          0.662              1.764              1.737
 Vibration    14          0.664              1.758              1.711
 Vibration    15          0.673              1.730              1.602
 Vibration    16          0.677              1.719              1.563
 Vibration    17          0.681              1.709              1.528
 Vibration    18          0.681              1.707              1.520
 Vibration    19          0.705              1.637              1.316
 Vibration    20          0.714              1.611              1.249
 Vibration    21          0.723              1.587              1.193
 Vibration    22          0.950              1.048              0.463
 Vibration    23          0.976              0.997              0.422
 Vibration    24          0.978              0.994              0.420

 Normal termination of Gaussian 09 at Wed Aug 18 10:06:16 2021.
