 Gaussian 09, Revision D.01,
 Gaussian 09:  EM64L-G09RevD.01 24-Apr-2013

 ------------------------------------------------------------
 #b3lyp/gen pseudo=read opt freq=noraman scrf=(solvent=water)
 ------------------------------------------------------------

 ------------
 Estrutura 58
 ------------
 Symbolic Z-matrix:
 Charge = -2 Multiplicity = 1

 SCF Done:  E(RB3LYP) =  -6341.98866300     A.U. after   25 cycles
 SCF Done:  E(RB3LYP) =  -6342.08226529     A.U. after   16 cycles
 SCF Done:  E(RB3LYP) =  -6342.17929134     A.U. after   17 cycles
 SCF Done:  E(RB3LYP) =  -6342.24820584     A.U. after   15 cycles
 SCF Done:  E(RB3LYP) =  -6342.27419131     A.U. after   16 cycles
 SCF Done:  E(RB3LYP) =  -6342.27637674     A.U. after   14 cycles
 SCF Done:  E(RB3LYP) =  -6342.27793295     A.U. after   15 cycles
 SCF Done:  E(RB3LYP) =  -6342.27117451     A.U. after   14 cycles
 SCF Done:  E(RB3LYP) =  -6342.27907194     A.U. after   10 cycles
 SCF Done:  E(RB3LYP) =  -6342.27994938     A.U. after   15 cycles
 SCF Done:  E(RB3LYP) =  -6342.28109938     A.U. after   10 cycles
 SCF Done:  E(RB3LYP) =  -6342.28110647     A.U. after   10 cycles
 SCF Done:  E(RB3LYP) =  -6342.28110933     A.U. after   10 cycles
 SCF Done:  E(RB3LYP) =  -6342.28110317     A.U. after   10 cycles
 SCF Done:  E(RB3LYP) =  -6342.28109021     A.U. after   10 cycles
 SCF Done:  E(RB3LYP) =  -6342.28107912     A.U. after   10 cycles
 SCF Done:  E(RB3LYP) =  -6342.28108726     A.U. after   10 cycles
 SCF Done:  E(RB3LYP) =  -6342.28108261     A.U. after   10 cycles
 SCF Done:  E(RB3LYP) =  -6342.28107875     A.U. after    9 cycles
 Optimization completed.
    -- Stationary point found.
 Normal termination of Gaussian 09 at Wed Aug 18 10:54:42 2021.

 ------------------------------------------------------------------
 #N Geom=AllCheck Guess=TCheck SCRF=Check GenChk RB3LYP/ChkBas Freq
 ------------------------------------------------------------------

 Structure from the checkpoint file:  "/home/scr/diego/Gau-27450.chk"
 ------------
 Estrutura 58
 ------------
 Charge = -2 Multiplicity = 1

                         Standard orientation:
 ---------------------------------------------------------------------
 Center     Atomic      Atomic             Coordinates (Angstroms)
 Number     Number       Type             X           Y           Z
 ---------------------------------------------------------------------
      1         78           0        0.040316   -0.183070   -0.077513
      2          7           0       -1.041743   -2.003412   -0.188369
      3          8           0       -2.075105   -2.113820    0.435793
      4          8           0       -0.561207   -2.880685   -0.881018
      5          7           0        1.808580   -1.333384   -0.038983
      6          8           0        1.815996   -2.278246    0.730561
      7          8           0        2.733030   -1.037136   -0.764321
      8         17           0        0.084232   -0.149402   -2.534510
      9          7           0        0.012112   -0.279120    2.028573
     10          8           0        1.080104   -0.172756    2.602677
     11          8           0       -1.048236   -0.456796    2.591377
     12         35           0        1.421434    2.023529    0.070864
     13         35           0       -2.152460    1.223505   -0.105049
 ---------------------------------------------------------------------

 SCF Done:  E(RB3LYP) =  -6342.28107875     A.U. after    1 cycles

 The electronic state is 1-A.
 Alpha  occ. eigenvalues -- -482.73589-482.73451-101.43713 -62.41706 -62.41570
 Alpha  occ. eigenvalues --  -56.24871 -56.24736 -56.24625 -56.24624 -56.24492
 Alpha  occ. eigenvalues --  -56.24484 -19.16412 -19.16378 -19.16177 -19.16173
 Alpha  occ. eigenvalues --  -19.16144 -19.15970 -14.53367 -14.53306 -14.53281
 Alpha  occ. eigenvalues --   -9.38910  -8.63413  -8.63278  -7.15634  -7.14937
 Alpha  occ. eigenvalues --   -7.14934  -6.46478  -6.46346  -6.45611  -6.45606
 Alpha  occ. eigenvalues --   -6.45485  -6.45459  -4.01498  -2.57943  -2.57812
 Alpha  occ. eigenvalues --   -2.57705  -2.57701  -2.57580  -2.57559  -2.57021
 Alpha  occ. eigenvalues --   -2.57020  -2.56884  -2.56884  -2.22632  -2.22574
 Alpha  occ. eigenvalues --   -2.22490  -1.20954  -1.20618  -1.20499  -1.04092
 Alpha  occ. eigenvalues --   -1.03750  -1.03591  -0.74133  -0.71177  -0.70415
 Alpha  occ. eigenvalues --   -0.63922  -0.62995  -0.62914  -0.54653  -0.53479
 Alpha  occ. eigenvalues --   -0.53162  -0.52128  -0.52029  -0.50539  -0.50374
 Alpha  occ. eigenvalues --   -0.50239  -0.50075  -0.36876  -0.36301  -0.36034
 Alpha  occ. eigenvalues --   -0.35824  -0.35659  -0.33642  -0.31764  -0.31625
 Alpha  occ. eigenvalues --   -0.30487  -0.29939  -0.29008  -0.28406  -0.26522
 Alpha  occ. eigenvalues --   -0.26284  -0.26195  -0.25133  -0.24976  -0.24676
 Alpha  occ. eigenvalues --   -0.24414  -0.24067  -0.23654
 Alpha virt. eigenvalues --   -0.09962  -0.09412  -0.05182  -0.05023  -0.04414
 Alpha virt. eigenvalues --    0.05414   0.06105   0.06512   0.09601   0.21945
 Alpha virt. eigenvalues --    0.23309   0.23750   0.28058   0.31535   0.31840

 Mulliken charges:
               1
     1  Pt  -0.083863
     2  N    0.147877
     3  O   -0.241977
     4  O   -0.254796
     5  N    0.157456
     6  O   -0.261485
     7  O   -0.250268
     8  Cl  -0.306478
     9  N    0.138066
    10  O   -0.257765
    11  O   -0.246083
    12  Br  -0.272401
    13  Br  -0.268283
 Sum of Mulliken charges =  -2.00000

 Dipole moment (field-independent basis, Debye):
    X=             -0.4068    Y=              0.9898    Z=              1.0766  Tot=              1.5180
 Quadrupole moment (field-independent basis, Debye-Ang):
   XX=           -158.0309   YY=           -154.5453   ZZ=           -154.6450
   XY=              0.0838   XZ=              2.3487   YZ=              0.6868

  Exact polarizability: 236.248   0.849 223.868  -7.828  -0.228 197.177
 Approx polarizability: 363.906   3.573 323.791 -25.515  -3.994 297.566

                      1                      2                      3
                      A                      A                      A
 Frequencies --     27.0873                66.2053                70.4984
 Red. masses --     18.2013                21.3803                27.1845
 Frc consts  --      0.0079                 0.0552                 0.0796
 IR Inten    --      0.1815                 0.2670                 0.2323

                      4                      5                      6
                      A                      A                      A
 Frequencies --     88.2605                97.3156               103.9417
 Red. masses --     25.7231                20.1857                21.5740
 Frc consts  --      0.1181                 0.1126                 0.1373
 IR Inten    --      0.4293                 0.1501                 0.0650

                      7                      8                      9
                      A                      A                      A
 Frequencies --    112.8899               118.8102               128.1284
 Red. masses --     37.0181                18.9531                26.7058
 Frc consts  --      0.2780                 0.1576                 0.2583
 IR Inten    --      0.1303                 0.8533                 1.2322

                     10                     11                     12
                      A                      A                      A
 Frequencies --    130.9015               138.7546               149.8106
 Red. masses --     22.0059                25.8718                16.4490
 Frc consts  --      0.2222                 0.2935                 0.2175
 IR Inten    --      0.1739                 2.0842                 0.2092

                     13                     14                     15
                      A                      A                      A
 Frequencies --    176.4997               181.5027               248.3064
 Red. masses --     48.7197                58.2584                17.7686
 Frc consts  --      0.8942                 1.1308                 0.6455
 IR Inten    --     25.7011                39.3301                33.8345

                     16                     17                     18
                      A                      A                      A
 Frequencies --    252.6431               275.7047               278.1587
 Red. masses --     17.7549                25.0915                20.4798
 Frc consts  --      0.6677                 1.1237                 0.9336
 IR Inten    --     23.5782                90.5051                26.2829

                     19                     20                     21
                      A                      A                      A
 Frequencies --    313.1579               324.2066               337.3379
 Red. masses --     16.7596                17.8488                17.5260
 Frc consts  --      0.9684                 1.1054                 1.1751
 IR Inten    --      4.9183                 6.8706                 2.1783

                     22                     23                     24
                      A                      A                      A
 Frequencies --    585.8905               607.6289               612.0073
 Red. masses --     14.4490                14.3875                14.4458
 Frc consts  --      2.9223                 3.1298                 3.1879
 IR Inten    --     21.8406                13.7443                23.3008

                     25                     26                     27
                      A                      A                      A
 Frequencies --    822.3700               825.2081               851.7246
 Red. masses --     15.2690                15.2770                15.3518
 Frc consts  --      6.0841                 6.1294                 6.5616
 IR Inten    --    271.3876               253.0313               204.6578

                     28                     29                     30
                      A                      A                      A
 Frequencies --   1386.5210              1388.6835              1440.8179
 Red. masses --     15.1523                15.1516                15.0498
 Frc consts  --     17.1625                17.2154                18.4076
 IR Inten    --    761.6970               856.8690               908.2916

                     31                     32                     33
                      A                      A                      A
 Frequencies --   1628.8102              1632.7215              1655.9797
 Red. masses --     14.6482                14.6494                14.6370
 Frc consts  --     22.8968                23.0089                23.6490
 IR Inten    --    401.7145               825.3137               373.6576

 - Thermochemistry -
 -------------------
 Temperature   298.150 Kelvin.  Pressure   1.00000 Atm.
 Atom     1 has atomic number 78 and mass 194.96480

 Molecular mass:   525.74903 amu.
 Principal axes and moments of inertia in atomic units:
                           1         2         3
     Eigenvalues --  4900.258885011.465216096.29282
           X            0.99773  -0.06693  -0.00756
           Y            0.06690   0.99775  -0.00421
           Z            0.00782   0.00370   0.99996
 This molecule is an asymmetric top.
 Rotational symmetry number  1.
 Warning -- assumption of classical behavior for rotation
           may cause significant error
 Rotational temperatures (Kelvin)      0.01768     0.01728     0.01421
 Rotational constants (GHZ):           0.36830     0.36012     0.29604
 Zero-point vibrational energy     102032.4 (Joules/Mol)
                                   24.38633 (Kcal/Mol)
 Warning -- explicit consideration of  24 degrees of freedom as
           vibrations may cause significant error
 Vibrational temperatures:     38.97    95.25   101.43   126.99   140.02
          (Kelvin)            149.55   162.42   170.94   184.35   188.34
                              199.64   215.54   253.94   261.14   357.26
                              363.50   396.68   400.21   450.56   466.46
                              485.35   842.96   874.24   880.54  1183.21
                             1187.29  1225.44  1994.89  1998.00  2073.01
                             2343.49  2349.12  2382.58

 Zero-point correction=                           0.038862 (Hartree/Particle)
 Thermal correction to Energy=                    0.055418
 Thermal correction to Enthalpy=                  0.056362
 Thermal correction to Gibbs Free Energy=        -0.009136
 Sum of electronic and zero-point Energies=          -6342.242217
 Sum of electronic and thermal Energies=             -6342.225661
 Sum of electronic and thermal Enthalpies=           -6342.224716
 Sum of electronic and thermal Free Energies=        -6342.290214

                     E (Thermal)             CV                S
                      KCal/Mol        Cal/Mol-Kelvin    Cal/Mol-Kelvin
 Total                   34.775             50.173            137.852
 Electronic               0.000              0.000              0.000
 Translational            0.889              2.981             44.665
 Rotational               0.889              2.981             33.370
 Vibrational             32.998             44.212             59.817
 Vibration     1          0.593              1.984              6.032
 Vibration     2          0.598              1.970              4.263
 Vibration     3          0.598              1.968              4.139
 Vibration     4          0.601              1.957              3.698
 Vibration     5          0.603              1.951              3.507
 Vibration     6          0.605              1.946              3.379
 Vibration     7          0.607              1.939              3.219
 Vibration     8          0.609              1.934              3.120
 Vibration     9          0.611              1.925              2.974
 Vibration    10          0.612              1.922              2.933
 Vibration    11          0.614              1.915              2.821
 Vibration    12          0.618              1.903              2.675
 Vibration    13          0.628              1.871              2.365
 Vibration    14          0.630              1.865              2.313
 Vibration    15          0.662              1.766              1.743
 Vibration    16          0.664              1.758              1.712
 Vibration    17          0.677              1.718              1.560
 Vibration    18          0.679              1.714              1.545
 Vibration    19          0.701              1.649              1.346
 Vibration    20          0.709              1.627              1.289
 Vibration    21          0.718              1.601              1.225
 Vibration    22          0.943              1.062              0.475
 Vibration    23          0.966              1.016              0.437
 Vibration    24          0.971              1.006              0.429

 Optimization completed.
    -- Stationary point found.
 Normal termination of Gaussian 09 at Wed Aug 18 10:58:02 2021.
