 Gaussian 09, Revision D.01,
 Gaussian 09:  EM64L-G09RevD.01 24-Apr-2013

 ----------------------------------------------------------------------
 #PBEPBE/gen scf=(maxcycle=1000,conver=4) NMR=GIAO Scrf=(solvent=water)
 ----------------------------------------------------------------------

 ------------
 estrutura 26
 ------------
 Symbolic Z-matrix:
 Charge = -2 Multiplicity = 1

                         Standard orientation:
 ---------------------------------------------------------------------
 Center     Atomic      Atomic             Coordinates (Angstroms)
 Number     Number       Type             X           Y           Z
 ---------------------------------------------------------------------
      1         78           0        0.160314    0.006456    0.009458
      2          7           0        2.275277   -0.016539   -0.026637
      3          8           0        2.843931   -1.085516   -0.235477
      4          8           0        2.845692    1.025192    0.150734
      5         17           0        0.196146    0.863854    2.272790
      6         17           0        0.150739   -2.227494    0.929099
      7         17           0        0.224733   -0.840265   -2.244174
      8         17           0        0.150566    2.252755   -0.876490
      9         35           0       -2.463587   -0.021018   -0.035833
 ---------------------------------------------------------------------

 SCF Done:  E(RPBE-PBE) =  -21724.0981935     A.U. after   12 cycles

      1  Pt   Isotropic =  -923.7846   Anisotropy =   401.5534

      2  N    Isotropic =  -179.2051   Anisotropy =   241.8257

      3  O    Isotropic =  -384.7146   Anisotropy =   384.4525

      4  O    Isotropic =  -369.4198   Anisotropy =   427.0236

      5  Cl   Isotropic =   634.5759   Anisotropy =   677.0401

      6  Cl   Isotropic =   526.4787   Anisotropy =   825.7037

      7  Cl   Isotropic =   620.7473   Anisotropy =   691.5612

      8  Cl   Isotropic =   532.8255   Anisotropy =   817.9825

      9  Br   Isotropic =  2122.7221   Anisotropy =  1287.7139

 The electronic state is 1-A.
 Alpha  occ. eigenvalues -- **********-478.57575-427.61016-414.93933-414.93925
 Alpha  occ. eigenvalues -- -414.93902-100.54363-100.54342-100.54227-100.54202
 Alpha  occ. eigenvalues --  -99.99022 -92.14697 -92.14683 -92.14654 -79.10649
 Alpha  occ. eigenvalues --  -79.10600 -79.10465 -79.10460 -79.10445 -61.49391
 Alpha  occ. eigenvalues --  -55.67852 -55.67595 -55.67592 -20.90461 -18.80572
 Alpha  occ. eigenvalues --  -18.79894 -17.46936 -17.46909 -17.46848 -14.19759
 Alpha  occ. eigenvalues --  -11.65455 -11.65332 -11.64817 -11.64802 -11.64776
 Alpha  occ. eigenvalues --   -9.12151  -9.12116  -9.12011  -9.11986  -8.32208
 Alpha  occ. eigenvalues --   -6.96128  -6.96083  -6.95989  -6.95966  -6.95258
 Alpha  occ. eigenvalues --   -6.95247  -6.95231  -6.95218  -6.95119  -6.95107
 Alpha  occ. eigenvalues --   -6.95094  -6.95080  -6.23003  -6.22265  -6.22264
 Alpha  occ. eigenvalues --   -3.20215  -3.20196  -3.20122  -3.19890  -3.19835
 Alpha  occ. eigenvalues --   -3.19814  -3.19437  -2.93053  -2.43951  -2.43764
 Alpha  occ. eigenvalues --   -2.43764  -2.43221  -2.43221  -1.87016  -1.86937
 Alpha  occ. eigenvalues --   -1.86807  -1.14520  -0.98202  -0.70280  -0.69172
 Alpha  occ. eigenvalues --   -0.69014  -0.68832  -0.64836  -0.58715  -0.49029
 Alpha  occ. eigenvalues --   -0.48174  -0.46920  -0.38250  -0.36294  -0.34970
 Alpha  occ. eigenvalues --   -0.34061  -0.33551  -0.30887  -0.29323  -0.29306
 Alpha  occ. eigenvalues --   -0.29209  -0.25995  -0.25480  -0.24805  -0.24439
 Alpha  occ. eigenvalues --   -0.24410  -0.23500  -0.23466  -0.23244  -0.22780
 Alpha  occ. eigenvalues --   -0.22718  -0.22090  -0.21838
 Alpha virt. eigenvalues --   -0.15828  -0.14368  -0.09928  -0.00687   0.01089
 Alpha virt. eigenvalues --    0.01179   0.01536   0.03498   0.03616   0.03721
 Alpha virt. eigenvalues --    0.04043   0.04411   0.06330   0.06909   0.06952

 Mulliken charges:
               1
     1  Pt  -0.132755
     2  N   -0.024023
     3  O   -0.089155
     4  O   -0.076779
     5  Cl  -0.332705
     6  Cl  -0.309785
     7  Cl  -0.312608
     8  Cl  -0.313310
     9  Br  -0.408880
 Sum of Mulliken charges =  -2.00000

 Dipole moment (field-independent basis, Debye):
    X=              0.9647    Y=              0.0883    Z=             -0.0742  Tot=              0.9716
 Quadrupole moment (field-independent basis, Debye-Ang):
   XX=           -148.2184   YY=           -147.3271   ZZ=           -144.1776
   XY=              0.4424   XZ=              0.1946   YZ=             -0.2847

 Normal termination of Gaussian 09 at Tue Jul 13 09:55:46 2021.
