 Gaussian 09, Revision D.01,
 Gaussian 09:  EM64L-G09RevD.01 24-Apr-2013

 ------------------------------------------------------------
 #b3lyp/gen pseudo=read opt freq=noraman scrf=(solvent=water)
 ------------------------------------------------------------

 ------------
 Estrutura 63
 ------------
 Symbolic Z-matrix:
 Charge = -2 Multiplicity = 1

 SCF Done:  E(RB3LYP) =  -1859.09249085     A.U. after   28 cycles
 SCF Done:  E(RB3LYP) =  -1859.21355156     A.U. after   17 cycles
 SCF Done:  E(RB3LYP) =  -1859.36059560     A.U. after   17 cycles
 SCF Done:  E(RB3LYP) =  -1859.47355126     A.U. after   15 cycles
 SCF Done:  E(RB3LYP) =  -1859.51406210     A.U. after   16 cycles
 SCF Done:  E(RB3LYP) =  -1859.52399778     A.U. after   14 cycles
 SCF Done:  E(RB3LYP) =  -1859.52827626     A.U. after   14 cycles
 SCF Done:  E(RB3LYP) =  -1859.52833169     A.U. after   15 cycles
 SCF Done:  E(RB3LYP) =  -1859.52924143     A.U. after   14 cycles
 SCF Done:  E(RB3LYP) =  -1859.52813526     A.U. after   14 cycles
 SCF Done:  E(RB3LYP) =  -1859.53189630     A.U. after   10 cycles
 SCF Done:  E(RB3LYP) =  -1859.53189525     A.U. after    9 cycles
 SCF Done:  E(RB3LYP) =  -1859.53189594     A.U. after    9 cycles
 SCF Done:  E(RB3LYP) =  -1859.53189456     A.U. after   10 cycles
 SCF Done:  E(RB3LYP) =  -1859.53189253     A.U. after   10 cycles
 SCF Done:  E(RB3LYP) =  -1859.53189116     A.U. after    9 cycles
 SCF Done:  E(RB3LYP) =  -1859.53187420     A.U. after   10 cycles
 SCF Done:  E(RB3LYP) =  -1859.53188956     A.U. after   10 cycles
 SCF Done:  E(RB3LYP) =  -1859.53189178     A.U. after    9 cycles
 Optimization completed.
    -- Stationary point found.
 Normal termination of Gaussian 09 at Wed Aug 18 14:54:55 2021.

 ------------------------------------------------------------------
 #N Geom=AllCheck Guess=TCheck SCRF=Check GenChk RB3LYP/ChkBas Freq
 ------------------------------------------------------------------

 Structure from the checkpoint file:  "/home/scr/diego/Gau-12274.chk"
 ------------
 Estrutura 63
 ------------
 Charge = -2 Multiplicity = 1

                         Standard orientation:
 ---------------------------------------------------------------------
 Center     Atomic      Atomic             Coordinates (Angstroms)
 Number     Number       Type             X           Y           Z
 ---------------------------------------------------------------------
      1         78           0       -0.007105   -0.120114    0.028465
      2          7           0        2.119717   -0.227155   -0.129327
      3          8           0        2.725020    0.835679   -0.112624
      4          8           0        2.674968   -1.307878   -0.193905
      5          7           0        0.272759    1.715262    1.037440
      6          7           0       -2.113985    0.045699    0.340074
      7          8           0       -2.818072   -0.943588    0.261006
      8          8           0       -2.545420    1.151920    0.628338
      9          8           0        0.728102    1.722800    2.160988
     10          8           0       -0.008934    2.718761    0.407410
     11         17           0        0.098088   -1.404466    2.116305
     12         17           0       -0.276132   -2.134694   -1.354188
     13          7           0       -0.158120    0.915761   -1.789528
     14          8           0        0.863056    1.189697   -2.387681
     15          8           0       -1.276425    1.181070   -2.186892
 ---------------------------------------------------------------------

 SCF Done:  E(RB3LYP) =  -1859.53189178     A.U. after    1 cycles

 The electronic state is 1-A.
 Alpha  occ. eigenvalues -- -101.44030-101.44019 -19.16425 -19.16367 -19.16340
 Alpha  occ. eigenvalues --  -19.16171 -19.15151 -19.15089 -19.14995 -19.14934
 Alpha  occ. eigenvalues --  -14.53644 -14.53413 -14.51677 -14.51663  -9.39234
 Alpha  occ. eigenvalues --   -9.39227  -7.15956  -7.15954  -7.15265  -7.15259
 Alpha  occ. eigenvalues --   -7.15254  -7.15243  -4.02113  -2.23254  -2.23218
 Alpha  occ. eigenvalues --   -2.23162  -1.20996  -1.20702  -1.19261  -1.19187
 Alpha  occ. eigenvalues --   -1.04072  -1.03876  -1.02247  -1.02233  -0.74747
 Alpha  occ. eigenvalues --   -0.74024  -0.64371  -0.63418  -0.63079  -0.60871
 Alpha  occ. eigenvalues --   -0.54596  -0.53790  -0.53035  -0.52651  -0.51765
 Alpha  occ. eigenvalues --   -0.50984  -0.50471  -0.50360  -0.49991  -0.49815
 Alpha  occ. eigenvalues --   -0.49289  -0.49143  -0.37027  -0.36760  -0.36560
 Alpha  occ. eigenvalues --   -0.35886  -0.35679  -0.31656  -0.31134  -0.30640
 Alpha  occ. eigenvalues --   -0.30423  -0.30114  -0.29648  -0.29088  -0.28659
 Alpha  occ. eigenvalues --   -0.27759  -0.26819  -0.26249  -0.26022  -0.25667
 Alpha  occ. eigenvalues --   -0.25578  -0.25052  -0.23278
 Alpha virt. eigenvalues --   -0.09572  -0.07992  -0.05129  -0.04862  -0.04693
 Alpha virt. eigenvalues --   -0.03385   0.05918   0.06090   0.06790   0.11539
 Alpha virt. eigenvalues --    0.23806   0.24119   0.25696   0.27966   0.31671

 Mulliken charges:
               1
     1  Pt   0.129161
     2  N    0.154302
     3  O   -0.286264
     4  O   -0.277634
     5  N    0.149259
     6  N    0.151000
     7  O   -0.277010
     8  O   -0.284789
     9  O   -0.248813
    10  O   -0.258457
    11  Cl  -0.292012
    12  Cl  -0.289408
    13  N    0.140582
    14  O   -0.254354
    15  O   -0.255564
 Sum of Mulliken charges =  -2.00000

 Dipole moment (field-independent basis, Debye):
    X=              0.0334    Y=              1.1725    Z=             -0.3419  Tot=              1.2218
 Quadrupole moment (field-independent basis, Debye-Ang):
   XX=           -153.6957   YY=           -150.5344   ZZ=           -143.0283
   XY=              0.1390   XZ=             -0.2474   YZ=              0.7451

  Exact polarizability: 195.752   1.100 202.117   3.281   0.514 184.075
 Approx polarizability: 295.536   1.623 324.781   8.884  -1.447 273.859

                      1                      2                      3
                      A                      A                      A
 Frequencies --      8.3895                31.5332                44.1715
 Red. masses --     16.4122                16.3823                16.0333
 Frc consts  --      0.0007                 0.0096                 0.0184
 IR Inten    --      0.3304                 0.3172                 0.6386

                      4                      5                      6
                      A                      A                      A
 Frequencies --     74.4799                96.3929               109.9032
 Red. masses --     16.5754                17.1244                18.6441
 Frc consts  --      0.0542                 0.0937                 0.1327
 IR Inten    --      0.1237                 1.0204                 0.6742

                      7                      8                      9
                      A                      A                      A
 Frequencies --    112.4565               115.5513               121.8930
 Red. masses --     23.0675                22.2871                17.1217
 Frc consts  --      0.1719                 0.1753                 0.1499
 IR Inten    --      0.3280                 2.0894                 2.5989

                     10                     11                     12
                      A                      A                      A
 Frequencies --    125.9638               135.7592               140.7765
 Red. masses --     20.5481                23.5567                24.7501
 Frc consts  --      0.1921                 0.2558                 0.2890
 IR Inten    --      0.2135                 1.0333                 0.4867

                     13                     14                     15
                      A                      A                      A
 Frequencies --    143.1664               231.3498               245.3075
 Red. masses --     22.8242                15.6923                19.4164
 Frc consts  --      0.2756                 0.4949                 0.6884
 IR Inten    --      0.3357                 0.4671               101.7185

                     16                     17                     18
                      A                      A                      A
 Frequencies --    252.1367               266.7913               269.8006
 Red. masses --     17.7139                16.5607                18.8067
 Frc consts  --      0.6635                 0.6945                 0.8066
 IR Inten    --      0.4849                 8.7021                49.6797

                     19                     20                     21
                      A                      A                      A
 Frequencies --    278.8174               283.7835               322.3084
 Red. masses --     24.9976                28.6405                17.1904
 Frc consts  --      1.1450                 1.3590                 1.0522
 IR Inten    --     35.5764               103.4681                 8.0738

                     22                     23                     24
                      A                      A                      A
 Frequencies --    328.4977               353.2709               529.3354
 Red. masses --     17.8261                20.0880                14.3552
 Frc consts  --      1.1334                 1.4771                 2.3698
 IR Inten    --      6.6482                13.4382                 0.3581

                     25                     26                     27
                      A                      A                      A
 Frequencies --    606.8139               614.4940               616.4273
 Red. masses --     14.3992                14.4015                14.4862
 Frc consts  --      3.1239                 3.2040                 3.2432
 IR Inten    --     15.6468                14.1105                34.4734

                     28                     29                     30
                      A                      A                      A
 Frequencies --    821.4796               827.1078               840.1928
 Red. masses --     15.3086                15.2911                15.3470
 Frc consts  --      6.0867                 6.1633                 6.3831
 IR Inten    --     96.8654               235.9584               290.8234

                     31                     32                     33
                      A                      A                      A
 Frequencies --    854.9533              1391.0092              1396.2176
 Red. masses --     15.3846                15.1433                15.1373
 Frc consts  --      6.6255                17.2636                17.3862
 IR Inten    --    104.4466               706.8972               389.7633

                     34                     35                     36
                      A                      A                      A
 Frequencies --   1407.0655              1459.0902              1601.3585
 Red. masses --     15.0411                15.0224                14.6638
 Frc consts  --     17.5452                18.8432                22.1551
 IR Inten    --   1198.4448               411.4329               175.7073

                     37                     38                     39
                      A                      A                      A
 Frequencies --   1615.2865              1636.0334              1639.8135
 Red. masses --     14.6412                14.6445                14.6440
 Frc consts  --     22.5074                23.0946                23.2005
 IR Inten    --    977.4022               490.3596               577.9921

 - Thermochemistry -
 -------------------
 Temperature   298.150 Kelvin.  Pressure   1.00000 Atm.
 Atom     1 has atomic number 78 and mass 194.96480

 Molecular mass:   448.87412 amu.
 Principal axes and moments of inertia in atomic units:
                           1         2         3
     Eigenvalues --  3946.854174200.085744319.48000
           X            0.99996  -0.00652  -0.00540
           Y            0.00655   0.99996   0.00541
           Z            0.00536  -0.00544   0.99997
 This molecule is an asymmetric top.
 Rotational symmetry number  1.
 Warning -- assumption of classical behavior for rotation
           may cause significant error
 Rotational temperatures (Kelvin)      0.02195     0.02062     0.02005
 Rotational constants (GHZ):           0.45726     0.42969     0.41781
 Zero-point vibrational energy     131285.2 (Joules/Mol)
                                   31.37793 (Kcal/Mol)
 Warning -- explicit consideration of  27 degrees of freedom as
           vibrations may cause significant error
 Vibrational temperatures:     12.07    45.37    63.55   107.16   138.69
          (Kelvin)            158.13   161.80   166.25   175.38   181.23
                              195.33   202.55   205.98   332.86   352.94
                              362.77   383.85   388.18   401.16   408.30
                              463.73   472.63   508.28   761.59   873.07
                              884.12   886.90  1181.92  1190.02  1208.85
                             1230.09  2001.35  2008.84  2024.45  2099.30
                             2303.99  2324.03  2353.88  2359.32

 Zero-point correction=                           0.050004 (Hartree/Particle)
 Thermal correction to Energy=                    0.067919
 Thermal correction to Enthalpy=                  0.068863
 Thermal correction to Gibbs Free Energy=        -0.000377
 Sum of electronic and zero-point Energies=          -1859.481888
 Sum of electronic and thermal Energies=             -1859.463973
 Sum of electronic and thermal Enthalpies=           -1859.463029
 Sum of electronic and thermal Free Energies=        -1859.532269

                     E (Thermal)             CV                S
                      KCal/Mol        Cal/Mol-Kelvin    Cal/Mol-Kelvin
 Total                   42.620             55.439            145.729
 Electronic               0.000              0.000              0.000
 Translational            0.889              2.981             44.194
 Rotational               0.889              2.981             32.637
 Vibrational             40.842             49.478             68.898
 Vibration     1          0.593              1.987              8.360
 Vibration     2          0.594              1.983              5.731
 Vibration     3          0.595              1.980              5.063
 Vibration     4          0.599              1.966              4.031
 Vibration     5          0.603              1.952              3.526
 Vibration     6          0.606              1.941              3.271
 Vibration     7          0.607              1.939              3.226
 Vibration     8          0.608              1.937              3.173
 Vibration     9          0.609              1.931              3.070
 Vibration    10          0.611              1.927              3.007
 Vibration    11          0.614              1.918              2.863
 Vibration    12          0.615              1.913              2.793
 Vibration    13          0.616              1.910              2.761
 Vibration    14          0.653              1.793              1.868
 Vibration    15          0.660              1.771              1.764
 Vibration    16          0.664              1.759              1.716
 Vibration    17          0.672              1.734              1.617
 Vibration    18          0.674              1.729              1.597
 Vibration    19          0.679              1.713              1.541
 Vibration    20          0.682              1.704              1.511
 Vibration    21          0.707              1.631              1.298
 Vibration    22          0.712              1.619              1.267
 Vibration    23          0.729              1.569              1.152
 Vibration    24          0.884              1.185              0.589
 Vibration    25          0.966              1.017              0.438
 Vibration    26          0.974              1.001              0.425
 Vibration    27          0.976              0.997              0.422

 Normal termination of Gaussian 09 at Wed Aug 18 14:58:20 2021.
