 Gaussian 09, Revision D.01,
 Gaussian 09:  EM64L-G09RevD.01 24-Apr-2013

 ------------------------------------------------------------
 #b3lyp/gen pseudo=read opt freq=noraman scrf=(solvent=water)
 ------------------------------------------------------------

 ------------
 Estrutura 57
 ------------
 Symbolic Z-matrix:
 Charge = -2 Multiplicity = 1

 SCF Done:  E(RB3LYP) =  -4228.11492214     A.U. after   26 cycles
 SCF Done:  E(RB3LYP) =  -4228.22514860     A.U. after   16 cycles
 SCF Done:  E(RB3LYP) =  -4228.34643106     A.U. after   18 cycles
 SCF Done:  E(RB3LYP) =  -4228.43429391     A.U. after   16 cycles
 SCF Done:  E(RB3LYP) =  -4228.46304483     A.U. after   16 cycles
 SCF Done:  E(RB3LYP) =  -4228.46590638     A.U. after   14 cycles
 SCF Done:  E(RB3LYP) =  -4228.47017187     A.U. after   14 cycles
 SCF Done:  E(RB3LYP) =  -4228.46979928     A.U. after   15 cycles
 SCF Done:  E(RB3LYP) =  -4228.47138122     A.U. after   11 cycles
 SCF Done:  E(RB3LYP) =  -4228.47027457     A.U. after   15 cycles
 SCF Done:  E(RB3LYP) =  -4228.47341563     A.U. after   12 cycles
 SCF Done:  E(RB3LYP) =  -4228.47343874     A.U. after   11 cycles
 SCF Done:  E(RB3LYP) =  -4228.47345707     A.U. after   10 cycles
 SCF Done:  E(RB3LYP) =  -4228.47346894     A.U. after   11 cycles
 SCF Done:  E(RB3LYP) =  -4228.47346762     A.U. after   10 cycles
 SCF Done:  E(RB3LYP) =  -4228.47346806     A.U. after   10 cycles
 SCF Done:  E(RB3LYP) =  -4228.47346905     A.U. after    9 cycles
 SCF Done:  E(RB3LYP) =  -4228.47346996     A.U. after    9 cycles
 SCF Done:  E(RB3LYP) =  -4228.47347070     A.U. after    9 cycles
 Optimization completed.
    -- Stationary point found.
 Normal termination of Gaussian 09 at Wed Aug 18 10:25:33 2021.

 ------------------------------------------------------------------
 #N Geom=AllCheck Guess=TCheck SCRF=Check GenChk RB3LYP/ChkBas Freq
 ------------------------------------------------------------------

 Structure from the checkpoint file:  "/home/scr/diego/Gau-25384.chk"
 ------------
 Estrutura 57
 ------------
 Charge = -2 Multiplicity = 1

                         Standard orientation:
 ---------------------------------------------------------------------
 Center     Atomic      Atomic             Coordinates (Angstroms)
 Number     Number       Type             X           Y           Z
 ---------------------------------------------------------------------
      1         78           0       -0.145198    0.017467   -0.117675
      2          7           0       -2.262636   -0.035430   -0.148896
      3          8           0       -2.870136    1.009127   -0.050011
      4          8           0       -2.785615   -1.127466   -0.257405
      5          7           0       -0.186343   -1.692568    1.097323
      6          8           0       -1.005928   -1.691533    2.000019
      7          8           0        0.574206   -2.609561    0.871511
      8         17           0       -0.150261   -1.407591   -2.120589
      9         17           0       -0.133524    2.022137   -1.537858
     10          7           0       -0.178656    1.194569    1.631835
     11          8           0        0.431981    0.767621    2.594872
     12          8           0       -0.803171    2.234309    1.627969
     13         35           0        2.463214    0.093267   -0.028148
 ---------------------------------------------------------------------

 SCF Done:  E(RB3LYP) =  -4228.47347070     A.U. after    1 cycles

 The electronic state is 1-A.
 Alpha  occ. eigenvalues -- -482.73560-101.43676-101.43526 -62.41678 -56.24842
 Alpha  occ. eigenvalues --  -56.24598 -56.24596 -19.16423 -19.16228 -19.16205
 Alpha  occ. eigenvalues --  -19.16169 -19.15963 -19.15948 -14.53412 -14.53279
 Alpha  occ. eigenvalues --  -14.53217  -9.38877  -9.38731  -8.63385  -7.15601
 Alpha  occ. eigenvalues --   -7.15456  -7.14904  -7.14902  -7.14764  -7.14746
 Alpha  occ. eigenvalues --   -6.46444  -6.45585  -6.45580  -4.01645  -2.57911
 Alpha  occ. eigenvalues --   -2.57675  -2.57671  -2.56997  -2.56996  -2.22786
 Alpha  occ. eigenvalues --   -2.22723  -2.22616  -1.20946  -1.20604  -1.20422
 Alpha  occ. eigenvalues --   -1.04088  -1.03704  -1.03518  -0.74419  -0.73521
 Alpha  occ. eigenvalues --   -0.70796  -0.63938  -0.63035  -0.62941  -0.54603
 Alpha  occ. eigenvalues --   -0.53483  -0.53153  -0.52098  -0.52048  -0.50524
 Alpha  occ. eigenvalues --   -0.50374  -0.50163  -0.50072  -0.37072  -0.36539
 Alpha  occ. eigenvalues --   -0.36259  -0.35989  -0.35904  -0.33900  -0.31716
 Alpha  occ. eigenvalues --   -0.31592  -0.30462  -0.29924  -0.28932  -0.28445
 Alpha  occ. eigenvalues --   -0.26743  -0.26342  -0.26263  -0.25377  -0.25249
 Alpha  occ. eigenvalues --   -0.25074  -0.24778  -0.24320  -0.24218
 Alpha virt. eigenvalues --   -0.09719  -0.09160  -0.05144  -0.04957  -0.04416
 Alpha virt. eigenvalues --    0.05488   0.06067   0.06625   0.10322   0.22762
 Alpha virt. eigenvalues --    0.24132   0.24750   0.28439   0.31642   0.31875

 Mulliken charges:
               1
     1  Pt  -0.030386
     2  N    0.149300
     3  O   -0.242816
     4  O   -0.253080
     5  N    0.148550
     6  O   -0.264768
     7  O   -0.253797
     8  Cl  -0.307008
     9  Cl  -0.304135
    10  N    0.139561
    11  O   -0.259216
    12  O   -0.244951
    13  Br  -0.277256
 Sum of Mulliken charges =  -2.00000

 Dipole moment (field-independent basis, Debye):
    X=              0.6590    Y=             -0.0818    Z=              1.4421  Tot=              1.5876
 Quadrupole moment (field-independent basis, Debye-Ang):
   XX=           -149.1073   YY=           -151.3095   ZZ=           -147.5870
   XY=              2.2669   XZ=              0.4433   YZ=              0.2923

  Exact polarizability: 221.917  -7.640 202.941   0.421   0.766 184.977
 Approx polarizability: 328.137 -25.152 320.554  -1.678   1.324 273.215

                      1                      2                      3
                      A                      A                      A
 Frequencies --     32.3788                64.6087                76.8482
 Red. masses --     17.5641                19.9862                19.6983
 Frc consts  --      0.0108                 0.0492                 0.0685
 IR Inten    --      0.1178                 0.3346                 0.0978

                      4                      5                      6
                      A                      A                      A
 Frequencies --     97.9689               105.5425               111.3137
 Red. masses --     24.0419                23.6537                23.8609
 Frc consts  --      0.1360                 0.1552                 0.1742
 IR Inten    --      0.2835                 0.2036                 0.1107

                      7                      8                      9
                      A                      A                      A
 Frequencies --    117.2129               127.8100               131.2487
 Red. masses --     22.7612                24.8348                23.2662
 Frc consts  --      0.1842                 0.2390                 0.2361
 IR Inten    --      0.0931                 0.1665                 0.6384

                     10                     11                     12
                      A                      A                      A
 Frequencies --    136.6645               141.2487               154.9013
 Red. masses --     24.4416                23.9606                16.8373
 Frc consts  --      0.2690                 0.2817                 0.2380
 IR Inten    --      0.1743                 1.4369                 0.4817

                     13                     14                     15
                      A                      A                      A
 Frequencies --    180.4284               248.4307               250.3173
 Red. masses --     52.3494                18.2181                17.6017
 Frc consts  --      1.0041                 0.6625                 0.6498
 IR Inten    --     35.2539                24.7989                 7.1711

                     16                     17                     18
                      A                      A                      A
 Frequencies --    269.1973               273.5490               277.8637
 Red. masses --     28.5901                33.6443                18.1555
 Frc consts  --      1.2207                 1.4833                 0.8259
 IR Inten    --     83.7193                93.4802                34.8037

                     19                     20                     21
                      A                      A                      A
 Frequencies --    313.8217               329.4010               339.3663
 Red. masses --     16.7240                18.0529                18.0043
 Frc consts  --      0.9704                 1.1541                 1.2217
 IR Inten    --      4.8113                 5.5484                 7.9445

                     22                     23                     24
                      A                      A                      A
 Frequencies --    587.3839               612.3941               616.9111
 Red. masses --     14.4369                14.4725                14.3857
 Frc consts  --      2.9347                 3.1978                 3.2257
 IR Inten    --     19.6501                28.3080                 9.2946

                     25                     26                     27
                      A                      A                      A
 Frequencies --    822.5457               826.9300               853.3751
 Red. masses --     15.2659                15.2846                15.3581
 Frc consts  --      6.0855                 6.1580                 6.5897
 IR Inten    --    277.9085               240.8393               178.7052

                     28                     29                     30
                      A                      A                      A
 Frequencies --   1388.2114              1388.8798              1443.2728
 Red. masses --     15.1585                15.1409                15.0458
 Frc consts  --     17.2114                17.2080                18.4656
 IR Inten    --    875.0209               696.6177               808.2368

                     31                     32                     33
                      A                      A                      A
 Frequencies --   1628.3141              1633.1615              1657.2514
 Red. masses --     14.6497                14.6459                14.6373
 Frc consts  --     22.8853                23.0158                23.6857
 IR Inten    --    884.3089               252.1460               467.7504

 - Thermochemistry -
 -------------------
 Temperature   298.150 Kelvin.  Pressure   1.00000 Atm.
 Atom     1 has atomic number 78 and mass 194.96480

 Molecular mass:   481.79955 amu.
 Principal axes and moments of inertia in atomic units:
                           1         2         3
     Eigenvalues --  3849.762704897.492625002.31337
           X            0.99998  -0.00621  -0.00264
           Y            0.00623   0.99996   0.00658
           Z            0.00260  -0.00659   0.99997
 This molecule is an asymmetric top.
 Rotational symmetry number  1.
 Warning -- assumption of classical behavior for rotation
           may cause significant error
 Rotational temperatures (Kelvin)      0.02250     0.01769     0.01731
 Rotational constants (GHZ):           0.46879     0.36850     0.36078
 Zero-point vibrational energy     103110.6 (Joules/Mol)
                                   24.64403 (Kcal/Mol)
 Warning -- explicit consideration of  24 degrees of freedom as
           vibrations may cause significant error
 Vibrational temperatures:     46.59    92.96   110.57   140.96   151.85
          (Kelvin)            160.16   168.64   183.89   188.84   196.63
                              203.23   222.87   259.60   357.44   360.15
                              387.31   393.58   399.78   451.52   473.93
                              488.27   845.11   881.10   887.60  1183.46
                             1189.77  1227.81  1997.32  1998.29  2076.55
                             2342.78  2349.75  2384.41

 Zero-point correction=                           0.039273 (Hartree/Particle)
 Thermal correction to Energy=                    0.055559
 Thermal correction to Enthalpy=                  0.056503
 Thermal correction to Gibbs Free Energy=        -0.007611
 Sum of electronic and zero-point Energies=          -4228.434198
 Sum of electronic and thermal Energies=             -4228.417911
 Sum of electronic and thermal Enthalpies=           -4228.416967
 Sum of electronic and thermal Free Energies=        -4228.481082

                     E (Thermal)             CV                S
                      KCal/Mol        Cal/Mol-Kelvin    Cal/Mol-Kelvin
 Total                   34.864             49.943            134.940
 Electronic               0.000              0.000              0.000
 Translational            0.889              2.981             44.405
 Rotational               0.889              2.981             32.911
 Vibrational             33.086             43.981             57.624
 Vibration     1          0.594              1.983              5.678
 Vibration     2          0.597              1.971              4.311
 Vibration     3          0.599              1.965              3.970
 Vibration     4          0.603              1.951              3.494
 Vibration     5          0.605              1.945              3.349
 Vibration     6          0.607              1.940              3.246
 Vibration     7          0.608              1.935              3.146
 Vibration     8          0.611              1.925              2.979
 Vibration     9          0.612              1.922              2.928
 Vibration    10          0.614              1.917              2.850
 Vibration    11          0.615              1.912              2.787
 Vibration    12          0.620              1.897              2.611
 Vibration    13          0.629              1.866              2.324
 Vibration    14          0.662              1.765              1.742
 Vibration    15          0.663              1.762              1.728
 Vibration    16          0.674              1.730              1.601
 Vibration    17          0.676              1.722              1.574
 Vibration    18          0.679              1.714              1.547
 Vibration    19          0.702              1.647              1.342
 Vibration    20          0.712              1.617              1.263
 Vibration    21          0.719              1.597              1.215
 Vibration    22          0.945              1.059              0.472
 Vibration    23          0.972              1.006              0.429
 Vibration    24          0.977              0.996              0.421

 Optimization completed.
    -- Stationary point found.
 Normal termination of Gaussian 09 at Wed Aug 18 10:28:23 2021.
