 Gaussian 09, Revision A.02,
 Gaussian 09:  EM64L-G09RevA.02 11-Jun-2009

 ------------------------------------------------------------
 #b3lyp/gen pseudo=read opt freq=noraman scrf=(solvent=water)
 ------------------------------------------------------------

 ------------
 Estrutura 68
 ------------
 Symbolic Z-matrix:
 Charge = -2 Multiplicity = 1

 SCF Done:  E(RB3LYP) =  -1348.72163020     A.U. after   28 cycles
 SCF Done:  E(RB3LYP) =  -1348.83193352     A.U. after   18 cycles
 SCF Done:  E(RB3LYP) =  -1348.97994829     A.U. after   19 cycles
 SCF Done:  E(RB3LYP) =  -1349.02815306     A.U. after   25 cycles
 SCF Done:  E(RB3LYP) =  -1349.11712420     A.U. after   15 cycles
 SCF Done:  E(RB3LYP) =  -1349.22310506     A.U. after   19 cycles
 SCF Done:  E(RB3LYP) =  -1349.25151829     A.U. after   18 cycles
 SCF Done:  E(RB3LYP) =  -1349.25578672     A.U. after   16 cycles
 SCF Done:  E(RB3LYP) =  -1349.25869951     A.U. after   16 cycles
 SCF Done:  E(RB3LYP) =  -1349.25725356     A.U. after   19 cycles
 SCF Done:  E(RB3LYP) =  -1349.26522522     A.U. after   17 cycles
 SCF Done:  E(RB3LYP) =  -1349.26525916     A.U. after   18 cycles
 SCF Done:  E(RB3LYP) =  -1349.26521717     A.U. after   18 cycles
 SCF Done:  E(RB3LYP) =  -1349.26521795     A.U. after   19 cycles
 SCF Done:  E(RB3LYP) =  -1349.26514742     A.U. after   18 cycles
 SCF Done:  E(RB3LYP) =  -1349.26513124     A.U. after   18 cycles
 SCF Done:  E(RB3LYP) =  -1349.26517962     A.U. after   18 cycles
 SCF Done:  E(RB3LYP) =  -1349.26445407     A.U. after   19 cycles
 SCF Done:  E(RB3LYP) =  -1349.26535495     A.U. after   18 cycles
 Optimization completed.
    -- Stationary point found.
 Normal termination of Gaussian 09 at Wed Dec  1 11:49:27 2021.

 ------------------------------------------------------------------
 #N Geom=AllCheck Guess=TCheck SCRF=Check GenChk RB3LYP/ChkBas Freq
 ------------------------------------------------------------------

 Estrutura 68
 ------------
 Redundant internal coordinates taken from checkpoint file:
 /scr/guest/Gau-23705.chk
 Charge = -2 Multiplicity = 1

                         Standard orientation:
 ---------------------------------------------------------------------
 Center     Atomic      Atomic             Coordinates (Angstroms)
 Number     Number       Type             X           Y           Z
 ---------------------------------------------------------------------
      1         78           0        0.000128   -0.000609   -0.000063
      2          7           0       -0.336332   -1.903939    0.910560
      3          8           0        0.639380   -2.630398    1.032807
      4          8           0       -1.450471   -2.205933    1.291449
      5          7           0        1.519113    0.290001    1.475045
      6          7           0        0.332746    1.905130   -0.910771
      7          8           0       -0.647547    2.625167   -1.036433
      8          8           0        1.445939    2.214945   -1.287806
      9          8           0        1.263903   -0.102409    2.604619
     10          8           0        2.562155    0.836681    1.173507
     11          7           0        1.319238   -1.020671   -1.337702
     12          8           0        0.854662   -1.982200   -1.932982
     13          8           0        2.469865   -0.648010   -1.458239
     14          7           0       -1.316591    1.024644    1.338054
     15          8           0       -2.470053    0.660295    1.457397
     16          8           0       -0.845940    1.983099    1.933921
     17          7           0       -1.518079   -0.294340   -1.474789
     18          8           0       -2.559973   -0.842935   -1.173113
     19          8           0       -1.263254    0.096913   -2.604863
 ---------------------------------------------------------------------

 SCF Done:  E(RB3LYP) =  -1349.26535495     A.U. after    3 cycles

 The electronic state is 1-A.
 Alpha  occ. eigenvalues --  -19.15627 -19.15625 -19.15621 -19.15618 -19.15605
 Alpha  occ. eigenvalues --  -19.15604 -19.15297 -19.15294 -19.15281 -19.15277
 Alpha  occ. eigenvalues --  -19.15273 -19.15271 -14.52094 -14.52093 -14.52074
 Alpha  occ. eigenvalues --  -14.52072 -14.52066 -14.52064  -4.02652  -2.23888
 Alpha  occ. eigenvalues --   -2.23878  -2.23651  -1.20108  -1.19665  -1.19649
 Alpha  occ. eigenvalues --   -1.19515  -1.19498  -1.19489  -1.03113  -1.02738
 Alpha  occ. eigenvalues --   -1.02724  -1.02685  -1.02561  -1.02543  -0.65615
 Alpha  occ. eigenvalues --   -0.63473  -0.63464  -0.61341  -0.61322  -0.61177
 Alpha  occ. eigenvalues --   -0.54710  -0.53230  -0.53225  -0.52763  -0.52729
 Alpha  occ. eigenvalues --   -0.51926  -0.51917  -0.51559  -0.50732  -0.50069
 Alpha  occ. eigenvalues --   -0.49553  -0.49465  -0.49450  -0.49422  -0.49405
 Alpha  occ. eigenvalues --   -0.49054  -0.49005  -0.48999  -0.36994  -0.35778
 Alpha  occ. eigenvalues --   -0.35766  -0.32501  -0.32487  -0.31100  -0.31096
 Alpha  occ. eigenvalues --   -0.30862  -0.30635  -0.30627  -0.29881  -0.29292
 Alpha  occ. eigenvalues --   -0.28851  -0.28108  -0.28089  -0.27904  -0.27724
 Alpha  occ. eigenvalues --   -0.27687  -0.24491  -0.23501  -0.23482
 Alpha virt. eigenvalues --   -0.07647  -0.07611  -0.05572  -0.05568  -0.04252
 Alpha virt. eigenvalues --   -0.03764  -0.03740  -0.03738   0.06485   0.06495
 Alpha virt. eigenvalues --    0.07027   0.12360   0.21709   0.26202   0.26969

 Mulliken atomic charges:
              1
     1  Pt   0.331937
     2  N    0.153581
     3  O   -0.280855
     4  O   -0.261679
     5  N    0.153802
     6  N    0.154509
     7  O   -0.281133
     8  O   -0.262104
     9  O   -0.281134
    10  O   -0.261497
    11  N    0.154039
    12  O   -0.280832
    13  O   -0.261370
    14  N    0.154901
    15  O   -0.261991
    16  O   -0.281111
    17  N    0.153587
    18  O   -0.261518
    19  O   -0.281132
 Sum of Mulliken atomic charges =  -2.00000

 Dipole moment (field-independent basis, Debye):
    X=              0.0084    Y=             -0.0183    Z=             -0.0028  Tot=              0.0203
 Quadrupole moment (field-independent basis, Debye-Ang):
   XX=           -165.2772   YY=           -159.5530   ZZ=           -158.9685
   XY=             -2.3662   XZ=              1.5030   YZ=              0.5729

  Exact polarizability: 223.598  11.438 196.275  -7.514  -2.709 193.653
 Approx polarizability: 385.952  38.487 294.501 -25.257  -9.277 286.407

                     1                      2                      3
                     A                      A                      A
 Frequencies --    25.4472                48.4453                51.9583
 Red. masses --    15.9765                15.9612                16.0041
 Frc consts  --     0.0061                 0.0221                 0.0255
 IR Inten    --     0.0004                 0.7143                 1.0409

                     4                      5                      6
                     A                      A                      A
 Frequencies --    54.5965                88.5407                92.0298
 Red. masses --    15.9467                15.9176                15.9094
 Frc consts  --     0.0280                 0.0735                 0.0794
 IR Inten    --     0.9143                 0.0007                 0.0027

                     7                      8                      9
                     A                      A                      A
 Frequencies --   100.5102               103.6484               106.9068
 Red. masses --    15.8014                15.7692                15.5890
 Frc consts  --     0.0941                 0.0998                 0.1050
 IR Inten    --     0.3874                 0.3357                 0.0035

                    10                     11                     12
                     A                      A                      A
 Frequencies --   122.1600               123.4536               123.6568
 Red. masses --    20.1333                16.1816                19.2041
 Frc consts  --     0.1770                 0.1453                 0.1730
 IR Inten    --     7.1330                 1.0657                 6.0154

                    13                     14                     15
                     A                      A                      A
 Frequencies --   126.4348               132.7355               142.4529
 Red. masses --    15.7033                18.8292                15.9988
 Frc consts  --     0.1479                 0.1955                 0.1913
 IR Inten    --     0.1327                 0.2811                 1.1910

                    16                     17                     18
                     A                      A                      A
 Frequencies --   224.0318               226.7194               240.2261
 Red. masses --    15.3759                15.3780                17.8814
 Frc consts  --     0.4547                 0.4657                 0.6080
 IR Inten    --     0.0174                 0.0413                83.4134

                    19                     20                     21
                     A                      A                      A
 Frequencies --   250.8055               252.7018               253.9250
 Red. masses --    19.3830                19.3441                15.6188
 Frc consts  --     0.7184                 0.7278                 0.5933
 IR Inten    --   107.1475               106.3961                 0.2546

                    22                     23                     24
                     A                      A                      A
 Frequencies --   255.2787               261.3577               284.7651
 Red. masses --    15.6528                15.4269                15.6169
 Frc consts  --     0.6010                 0.6209                 0.7461
 IR Inten    --     1.5180                 0.0514                 0.0067

                    25                     26                     27
                     A                      A                      A
 Frequencies --   330.5886               331.9345               366.2242
 Red. masses --    17.0458                17.0378                20.2101
 Frc consts  --     1.0976                 1.1060                 1.5970
 IR Inten    --     6.0497                 5.8842                 5.8046

                    28                     29                     30
                     A                      A                      A
 Frequencies --   506.3077               530.9040               531.5018
 Red. masses --    14.3742                14.3274                14.3254
 Frc consts  --     2.1710                 2.3793                 2.3843
 IR Inten    --     0.0002                 0.0002                 0.0004

                    31                     32                     33
                     A                      A                      A
 Frequencies --   603.3819               610.8342               611.7266
 Red. masses --    14.2741                14.5816                14.5833
 Frc consts  --     3.0618                 3.2056                 3.2153
 IR Inten    --     0.6979                46.9787                47.7510

                    34                     35                     36
                     A                      A                      A
 Frequencies --   817.2616               817.7355               836.0339
 Red. masses --    15.3168                15.3149                15.3367
 Frc consts  --     6.0276                 6.0338                 6.3158
 IR Inten    --     0.0024                 0.0077               285.9167

                    37                     38                     39
                     A                      A                      A
 Frequencies --   839.8793               840.5459               859.3523
 Red. masses --    15.3471                15.3467                15.4172
 Frc consts  --     6.3784                 6.3883                 6.7081
 IR Inten    --   276.6239               273.8903                 0.0060

                    40                     41                     42
                     A                      A                      A
 Frequencies --  1398.5837              1399.2432              1402.8137
 Red. masses --    15.1340                15.1338                15.0376
 Frc consts  --    17.4413                17.4576                17.4353
 IR Inten    --     1.3579                 0.1361               650.9175

                    43                     44                     45
                     A                      A                      A
 Frequencies --  1410.6858              1411.4223              1478.3099
 Red. masses --    15.0367                15.0361                14.9818
 Frc consts  --    17.6304                17.6482                19.2906
 IR Inten    --  1390.6835              1382.4784                 0.0078

                    46                     47                     48
                     A                      A                      A
 Frequencies --  1599.5032              1600.0661              1619.2487
 Red. masses --    14.6706                14.6707                14.6402
 Frc consts  --    22.1140                22.1298                22.6164
 IR Inten    --     0.1085                 0.1502               303.3643

                    49                     50                     51
                     A                      A                      A
 Frequencies --  1619.6287              1630.5144              1638.7814
 Red. masses --    14.6407                14.6494                14.6571
 Frc consts  --    22.6279                22.9467                23.1921
 IR Inten    --   296.4397              2544.2583                 0.2867

 - Thermochemistry -
 -------------------
 Temperature   298.150 Kelvin.  Pressure   1.00000 Atm.
 Atom     1 has atomic number 78 and mass 194.96480

 Molecular mass:   470.92222 amu.
 Principal axes and moments of inertia in atomic units:
                           1         2         3
     Eigenvalues --  4796.523324807.608744816.21676
           X            1.00000   0.00129  -0.00047
           Y           -0.00129   1.00000  -0.00041
           Z            0.00047   0.00041   1.00000
 This molecule is an asymmetric top.
 Rotational symmetry number  1.
 Warning -- assumption of classical behavior for rotation
           may cause significant error
 Rotational temperatures (Kelvin)      0.01806     0.01802     0.01798
 Rotational constants (GHZ):           0.37626     0.37539     0.37472
 Zero-point vibrational energy     187429.7 (Joules/Mol)
                                   44.79678 (Kcal/Mol)
 Warning -- explicit consideration of  33 degrees of freedom as
           vibrations may cause significant error
 Vibrational temperatures:     36.61    69.70    74.76    78.55   127.39
          (Kelvin)            132.41   144.61   149.13   153.81   175.76
                              177.62   177.91   181.91   190.98   204.96
                              322.33   326.20   345.63   360.85   363.58
                              365.34   367.29   376.03   409.71   475.64
                              477.58   526.91   728.46   763.85   764.71
                              868.13   878.85   880.14  1175.86  1176.54
                             1202.86  1208.40  1209.36  1236.41  2012.25
                             2013.20  2018.33  2029.66  2030.72  2126.96
                             2301.33  2302.14  2329.73  2330.28  2345.94
                             2357.84

 Zero-point correction=                           0.071388 (Hartree/Particle)
 Thermal correction to Energy=                    0.092436
 Thermal correction to Enthalpy=                  0.093380
 Thermal correction to Gibbs Free Energy=         0.018929
 Sum of electronic and zero-point Energies=          -1349.193967
 Sum of electronic and thermal Energies=             -1349.172919
 Sum of electronic and thermal Enthalpies=           -1349.171975
 Sum of electronic and thermal Free Energies=        -1349.246426

                     E (Thermal)             CV                S
                      KCal/Mol        Cal/Mol-Kelvin    Cal/Mol-Kelvin
 Total                   58.005             66.908            156.696
 Electronic               0.000              0.000              0.000
 Translational            0.889              2.981             44.337
 Rotational               0.889              2.981             33.074
 Vibrational             56.227             60.946             79.285
 Vibration     1          0.593              1.985              6.156
 Vibration     2          0.595              1.978              4.880
 Vibration     3          0.596              1.977              4.741
 Vibration     4          0.596              1.976              4.644
 Vibration     5          0.601              1.957              3.692
 Vibration     6          0.602              1.955              3.616
 Vibration     7          0.604              1.949              3.444
 Vibration     8          0.605              1.946              3.385
 Vibration     9          0.606              1.944              3.324
 Vibration    10          0.610              1.931              3.066
 Vibration    11          0.610              1.929              3.046
 Vibration    12          0.610              1.929              3.042
 Vibration    13          0.611              1.927              3.000
 Vibration    14          0.613              1.921              2.906
 Vibration    15          0.616              1.911              2.771
 Vibration    16          0.649              1.804              1.926
 Vibration    17          0.650              1.800              1.905
 Vibration    18          0.657              1.779              1.801
 Vibration    19          0.663              1.761              1.725
 Vibration    20          0.664              1.758              1.712
 Vibration    21          0.665              1.756              1.703
 Vibration    22          0.666              1.754              1.694
 Vibration    23          0.669              1.743              1.653
 Vibration    24          0.683              1.702              1.505
 Vibration    25          0.713              1.614              1.257
 Vibration    26          0.714              1.612              1.251
 Vibration    27          0.739              1.542              1.096
 Vibration    28          0.862              1.236              0.643
 Vibration    29          0.886              1.182              0.585
 Vibration    30          0.886              1.180              0.584
 Vibration    31          0.962              1.025              0.444
 Vibration    32          0.970              1.009              0.431
 Vibration    33          0.971              1.007              0.430

 Normal termination of Gaussian 09 at Wed Dec  1 12:00:48 2021.
