 Gaussian 09, Revision D.01,
 Gaussian 09:  EM64L-G09RevD.01 24-Apr-2013

 ------------------------------------------------------------
 #b3lyp/gen pseudo=read opt freq=noraman scrf=(solvent=water)
 ------------------------------------------------------------

 ------------
 Estrutura 62
 ------------
 Symbolic Z-matrix:
 Charge = -2 Multiplicity = 1

 SCF Done:  E(RB3LYP) =  -6086.76541651     A.U. after   29 cycles
 SCF Done:  E(RB3LYP) =  -6086.86887950     A.U. after   17 cycles
 SCF Done:  E(RB3LYP) =  -6086.98667954     A.U. after   18 cycles
 SCF Done:  E(RB3LYP) =  -6087.07920227     A.U. after   15 cycles
 SCF Done:  E(RB3LYP) =  -6087.12397139     A.U. after   16 cycles
 SCF Done:  E(RB3LYP) =  -6087.13730433     A.U. after   15 cycles
 SCF Done:  E(RB3LYP) =  -6087.14047896     A.U. after   13 cycles
 SCF Done:  E(RB3LYP) =  -6087.14079959     A.U. after   13 cycles
 SCF Done:  E(RB3LYP) =  -6087.14031669     A.U. after   13 cycles
 SCF Done:  E(RB3LYP) =  -6087.14173004     A.U. after   10 cycles
 SCF Done:  E(RB3LYP) =  -6087.14426077     A.U. after   12 cycles
 SCF Done:  E(RB3LYP) =  -6087.14435662     A.U. after   11 cycles
 SCF Done:  E(RB3LYP) =  -6087.14417105     A.U. after   14 cycles
 SCF Done:  E(RB3LYP) =  -6087.14437215     A.U. after   13 cycles
 SCF Done:  E(RB3LYP) =  -6087.14437708     A.U. after   11 cycles
 SCF Done:  E(RB3LYP) =  -6087.14437665     A.U. after   10 cycles
 SCF Done:  E(RB3LYP) =  -6087.14437362     A.U. after   10 cycles
 SCF Done:  E(RB3LYP) =  -6087.14437247     A.U. after    9 cycles
 SCF Done:  E(RB3LYP) =  -6087.14437224     A.U. after    9 cycles
 Optimization completed.
    -- Stationary point found.
 Normal termination of Gaussian 09 at Wed Aug 18 14:12:54 2021.

 ------------------------------------------------------------------
 #N Geom=AllCheck Guess=TCheck SCRF=Check GenChk RB3LYP/ChkBas Freq
 ------------------------------------------------------------------

 Structure from the checkpoint file:  "/home/scr/diego/Gau-9421.chk"
 ------------
 Estrutura 62
 ------------
 Charge = -2 Multiplicity = 1

                         Standard orientation:
 ---------------------------------------------------------------------
 Center     Atomic      Atomic             Coordinates (Angstroms)
 Number     Number       Type             X           Y           Z
 ---------------------------------------------------------------------
      1         78           0       -0.000014    0.000024    0.000018
      2          7           0       -0.057754   -1.517532    1.514783
      3          8           0       -0.798796   -1.380161    2.470938
      4          8           0        0.663387   -2.490701    1.362933
      5          7           0       -0.119915    1.595580    1.426079
      6          8           0        0.619688    2.553041    1.263997
      7          8           0       -0.920515    1.519495    2.339834
      8          7           0        0.057906    1.517409   -1.515096
      9          7           0        0.119902   -1.595499   -1.426356
     10          8           0       -0.620510   -2.552470   -1.265037
     11          8           0        0.921201   -1.519725   -2.339511
     12          8           0       -0.663966    2.490172   -1.364038
     13          8           0        0.799772    1.380299   -2.470629
     14         35           0       -2.546938   -0.040999   -0.239103
     15         35           0        2.546880    0.040965    0.239527
 ---------------------------------------------------------------------

 SCF Done:  E(RB3LYP) =  -6087.14437224     A.U. after    1 cycles

 The electronic state is 1-A.
 Alpha  occ. eigenvalues -- -482.75101-482.75100 -62.43220 -62.43219 -56.26419
 Alpha  occ. eigenvalues --  -56.26418 -56.26122 -56.26122 -56.26119 -56.26118
 Alpha  occ. eigenvalues --  -19.15020 -19.15020 -19.14963 -19.14963 -19.14869
 Alpha  occ. eigenvalues --  -19.14867 -19.14794 -19.14792 -14.51630 -14.51628
 Alpha  occ. eigenvalues --  -14.51554 -14.51552  -8.64941  -8.64939  -6.48122
 Alpha  occ. eigenvalues --   -6.48122  -6.47080  -6.47080  -6.47068  -6.47067
 Alpha  occ. eigenvalues --   -4.01534  -2.59564  -2.59563  -2.59281  -2.59280
 Alpha  occ. eigenvalues --   -2.59271  -2.59271  -2.58453  -2.58453  -2.58452
 Alpha  occ. eigenvalues --   -2.58452  -2.22776  -2.22589  -2.22500  -1.19411
 Alpha  occ. eigenvalues --   -1.19155  -1.19040  -1.18982  -1.02394  -1.02155
 Alpha  occ. eigenvalues --   -1.02089  -1.01888  -0.72812  -0.71913  -0.64014
 Alpha  occ. eigenvalues --   -0.62722  -0.60740  -0.60661  -0.53729  -0.51994
 Alpha  occ. eigenvalues --   -0.51672  -0.51632  -0.51483  -0.49886  -0.49475
 Alpha  occ. eigenvalues --   -0.49438  -0.49293  -0.49088  -0.48933  -0.48861
 Alpha  occ. eigenvalues --   -0.39384  -0.36617  -0.36170  -0.34802  -0.31697
 Alpha  occ. eigenvalues --   -0.30791  -0.30715  -0.30621  -0.29841  -0.29217
 Alpha  occ. eigenvalues --   -0.28979  -0.28114  -0.27956  -0.27887  -0.27049
 Alpha  occ. eigenvalues --   -0.26117  -0.25693  -0.24839  -0.24622  -0.23619
 Alpha  occ. eigenvalues --   -0.22904
 Alpha virt. eigenvalues --   -0.11324  -0.06927  -0.04942  -0.04216  -0.03466
 Alpha virt. eigenvalues --   -0.03089   0.04932   0.06840   0.07050   0.10593
 Alpha virt. eigenvalues --    0.21173   0.23547   0.24308   0.26571   0.32221

 Mulliken charges:
               1
     1  Pt  -0.060728
     2  N    0.157744
     3  O   -0.271601
     4  O   -0.280340
     5  N    0.157310
     6  O   -0.280522
     7  O   -0.270880
     8  N    0.157787
     9  N    0.157387
    10  O   -0.280538
    11  O   -0.270894
    12  O   -0.280378
    13  O   -0.271609
    14  Br  -0.181362
    15  Br  -0.181376
 Sum of Mulliken charges =  -2.00000

 Dipole moment (field-independent basis, Debye):
    X=              0.0000    Y=             -0.0002    Z=              0.0014  Tot=              0.0014
 Quadrupole moment (field-independent basis, Debye-Ang):
   XX=           -154.0243   YY=           -168.4714   ZZ=           -163.1418
   XY=              0.5897   XZ=              7.2350   YZ=             -0.1078

  Exact polarizability: 254.282  -0.660 214.519 -15.603   0.464 203.365
 Approx polarizability: 377.685  -1.628 325.909 -50.646   1.662 311.534

                      1                      2                      3
                      A                      A                      A
 Frequencies --     38.8377                46.1822                57.9158
 Red. masses --     19.5967                19.4751                16.0766
 Frc consts  --      0.0174                 0.0245                 0.0318
 IR Inten    --      1.1455                 3.2758                 0.0000

                      4                      5                      6
                      A                      A                      A
 Frequencies --     88.3355                91.7204                95.4196
 Red. masses --     22.2831                23.6709                21.3718
 Frc consts  --      0.1024                 0.1173                 0.1146
 IR Inten    --      0.0000                 0.9995                 0.0843

                      7                      8                      9
                      A                      A                      A
 Frequencies --    106.4952               114.7308               118.8679
 Red. masses --     22.0828                29.5574                16.5904
 Frc consts  --      0.1476                 0.2292                 0.1381
 IR Inten    --      0.0000                 0.0360                 0.0001

                     10                     11                     12
                      A                      A                      A
 Frequencies --    123.1433               144.5369               144.9550
 Red. masses --     22.8229                15.9020                18.8592
 Frc consts  --      0.2039                 0.1957                 0.2335
 IR Inten    --      2.1692                 0.0049                 1.0069

                     13                     14                     15
                      A                      A                      A
 Frequencies --    154.1977               178.4390               214.3025
 Red. masses --     17.1296                70.9697                51.1099
 Frc consts  --      0.2400                 1.3314                 1.3830
 IR Inten    --      1.6072                 0.0000                58.2506

                     16                     17                     18
                      A                      A                      A
 Frequencies --    216.9503               239.1973               243.5843
 Red. masses --     15.3812                19.8420                20.0457
 Frc consts  --      0.4265                 0.6689                 0.7008
 IR Inten    --      0.0003                97.8260                97.8145

                     19                     20                     21
                      A                      A                      A
 Frequencies --    253.5586               255.8215               281.1759
 Red. masses --     15.6234                15.5721                15.6628
 Frc consts  --      0.5918                 0.6004                 0.7296
 IR Inten    --      0.0005                 0.0013                 0.0000

                     22                     23                     24
                      A                      A                      A
 Frequencies --    332.7182               357.4369               516.7972
 Red. masses --     17.1250                19.2687                14.3663
 Frc consts  --      1.1170                 1.4504                 2.2607
 IR Inten    --      8.5170                 4.6454                 0.0000

                     25                     26                     27
                      A                      A                      A
 Frequencies --    530.9553               605.7980               615.4665
 Red. masses --     14.3480                14.3777                14.6470
 Frc consts  --      2.3832                 3.1088                 3.2690
 IR Inten    --      0.0000                11.2500                53.5131

                     28                     29                     30
                      A                      A                      A
 Frequencies --    818.0087               838.4334               840.0374
 Red. masses --     15.3109                15.3257                15.3326
 Frc consts  --      6.0362                 6.3476                 6.3748
 IR Inten    --      0.0001               327.8779               345.7289

                     31                     32                     33
                      A                      A                      A
 Frequencies --    848.6469              1397.5344              1400.4122
 Red. masses --     15.3811                15.1538                15.0597
 Frc consts  --      6.5267                17.4380                17.4012
 IR Inten    --      0.0006                 0.0081              1116.5168

                     34                     35                     36
                      A                      A                      A
 Frequencies --   1403.9779              1450.4366              1591.4144
 Red. masses --     15.0587                15.0456                14.6658
 Frc consts  --     17.4888                18.6491                21.8838
 IR Inten    --   1423.5628                 0.0001                 0.0008

                     37                     38                     39
                      A                      A                      A
 Frequencies --   1616.5846              1622.6878              1625.7457
 Red. masses --     14.6361                14.6416                14.6553
 Frc consts  --     22.5358                22.7148                22.8218
 IR Inten    --    440.2074              1686.6191                 0.0342

 - Thermochemistry -
 -------------------
 Temperature   298.150 Kelvin.  Pressure   1.00000 Atm.
 Atom     1 has atomic number 78 and mass 194.96480

 Molecular mass:   536.77309 amu.
 Principal axes and moments of inertia in atomic units:
                           1         2         3
     Eigenvalues --  4602.379116105.151836343.20996
           X            0.99974  -0.00448  -0.02235
           Y            0.00444   0.99999  -0.00200
           Z            0.02236   0.00190   0.99975
 This molecule is an asymmetric top.
 Rotational symmetry number  1.
 Warning -- assumption of classical behavior for rotation
           may cause significant error
 Rotational temperatures (Kelvin)      0.01882     0.01419     0.01365
 Rotational constants (GHZ):           0.39213     0.29561     0.28452
 Zero-point vibrational energy     129325.0 (Joules/Mol)
                                   30.90943 (Kcal/Mol)
 Warning -- explicit consideration of  27 degrees of freedom as
           vibrations may cause significant error
 Vibrational temperatures:     55.88    66.45    83.33   127.09   131.96
          (Kelvin)            137.29   153.22   165.07   171.02   177.18
                              207.96   208.56   221.86   256.73   308.33
                              312.14   344.15   350.46   364.81   368.07
                              404.55   478.71   514.27   743.55   763.93
                              871.61   885.52  1176.93  1206.32  1208.62
                             1221.01  2010.74  2014.88  2020.01  2086.85
                             2289.69  2325.90  2334.68  2339.08

 Zero-point correction=                           0.049257 (Hartree/Particle)
 Thermal correction to Energy=                    0.067463
 Thermal correction to Enthalpy=                  0.068407
 Thermal correction to Gibbs Free Energy=        -0.000416
 Sum of electronic and zero-point Energies=          -6087.095115
 Sum of electronic and thermal Energies=             -6087.076909
 Sum of electronic and thermal Enthalpies=           -6087.075965
 Sum of electronic and thermal Free Energies=        -6087.144788

                     E (Thermal)             CV                S
                      KCal/Mol        Cal/Mol-Kelvin    Cal/Mol-Kelvin
 Total                   42.334             56.057            144.850
 Electronic               0.000              0.000              0.000
 Translational            0.889              2.981             44.727
 Rotational               0.889              2.981             33.544
 Vibrational             40.556             50.095             66.579
 Vibration     1          0.594              1.981              5.318
 Vibration     2          0.595              1.979              4.975
 Vibration     3          0.596              1.974              4.527
 Vibration     4          0.601              1.957              3.697
 Vibration     5          0.602              1.955              3.623
 Vibration     6          0.603              1.952              3.546
 Vibration     7          0.605              1.944              3.332
 Vibration     8          0.608              1.937              3.187
 Vibration     9          0.609              1.934              3.119
 Vibration    10          0.610              1.930              3.050
 Vibration    11          0.616              1.909              2.743
 Vibration    12          0.616              1.908              2.737
 Vibration    13          0.620              1.898              2.620
 Vibration    14          0.629              1.869              2.345
 Vibration    15          0.644              1.819              2.007
 Vibration    16          0.646              1.815              1.984
 Vibration    17          0.657              1.781              1.809
 Vibration    18          0.659              1.773              1.777
 Vibration    19          0.665              1.757              1.706
 Vibration    20          0.666              1.753              1.690
 Vibration    21          0.681              1.708              1.527
 Vibration    22          0.715              1.610              1.247
 Vibration    23          0.733              1.560              1.133
 Vibration    24          0.872              1.213              0.617
 Vibration    25          0.886              1.182              0.585
 Vibration    26          0.964              1.020              0.440
 Vibration    27          0.975              0.999              0.424

 Optimization completed.
    -- Stationary point found.
 Normal termination of Gaussian 09 at Wed Aug 18 14:17:30 2021.
