 Gaussian 09, Revision D.01,
 Gaussian 09:  EM64L-G09RevD.01 24-Apr-2013

 ------------------------------------------------------------
 #b3lyp/gen pseudo=read opt freq=noraman scrf=(solvent=water)
 ------------------------------------------------------------

 ------------
 Estrutura 64
 ------------
 Symbolic Z-matrix:
 Charge = -2 Multiplicity = 1

 SCF Done:  E(RB3LYP) =  -3972.96652564     A.U. after   29 cycles
 SCF Done:  E(RB3LYP) =  -3973.07289377     A.U. after   17 cycles
 SCF Done:  E(RB3LYP) =  -3973.19606213     A.U. after   17 cycles
 SCF Done:  E(RB3LYP) =  -3973.28832486     A.U. after   15 cycles
 SCF Done:  E(RB3LYP) =  -3973.32673842     A.U. after   16 cycles
 SCF Done:  E(RB3LYP) =  -3973.33206843     A.U. after   14 cycles
 SCF Done:  E(RB3LYP) =  -3973.33696000     A.U. after   14 cycles
 SCF Done:  E(RB3LYP) =  -3973.33725579     A.U. after   15 cycles
 SCF Done:  E(RB3LYP) =  -3973.33837672     A.U. after   14 cycles
 SCF Done:  E(RB3LYP) =  -3973.33763263     A.U. after   13 cycles
 SCF Done:  E(RB3LYP) =  -3973.33938038     A.U. after    9 cycles
 SCF Done:  E(RB3LYP) =  -3973.33938927     A.U. after    5 cycles
 SCF Done:  E(RB3LYP) =  -3973.33929554     A.U. after   13 cycles
 SCF Done:  E(RB3LYP) =  -3973.33933779     A.U. after   12 cycles
 SCF Done:  E(RB3LYP) =  -3973.33741757     A.U. after   13 cycles
 SCF Done:  E(RB3LYP) =  -3973.33938106     A.U. after    9 cycles
 SCF Done:  E(RB3LYP) =  -3973.33938941     A.U. after    4 cycles
 SCF Done:  E(RB3LYP) =  -3973.33056521     A.U. after   14 cycles
 SCF Done:  E(RB3LYP) =  -3973.33938851     A.U. after    5 cycles
 Optimization completed.
    -- Stationary point found.
 Normal termination of Gaussian 09 at Wed Aug 18 16:22:38 2021.

 ------------------------------------------------------------------
 #N Geom=AllCheck Guess=TCheck SCRF=Check GenChk RB3LYP/ChkBas Freq
 ------------------------------------------------------------------

 Structure from the checkpoint file:  "/home/scr/diego/Gau-15735.chk"
 ------------
 Estrutura 64
 ------------
 Charge = -2 Multiplicity = 1

                         Standard orientation:
 ---------------------------------------------------------------------
 Center     Atomic      Atomic             Coordinates (Angstroms)
 Number     Number       Type             X           Y           Z
 ---------------------------------------------------------------------
      1         78           0       -0.130575    0.004414   -0.094334
      2          7           0       -0.130750   -2.117592   -0.289101
      3          8           0       -1.051740   -2.716968    0.248322
      4          8           0        0.731523   -2.672139   -0.943913
      5          7           0       -2.256565   -0.105864   -0.098078
      6          7           0       -0.296548    2.131498    0.000212
      7          8           0        0.658632    2.845073   -0.242599
      8          8           0       -1.406026    2.572396    0.269866
      9          8           0       -2.860321   -0.089332   -1.148554
     10          8           0       -2.784740   -0.194432    0.994449
     11         17           0       -0.028435    0.242492   -2.533434
     12          7           0       -0.137753   -0.144598    2.000502
     13          8           0        0.129034   -1.218787    2.501020
     14          8           0       -0.391849    0.861892    2.634150
     15         35           0        2.463527    0.059645    0.132278
 ---------------------------------------------------------------------

 SCF Done:  E(RB3LYP) =  -3973.33938851     A.U. after    1 cycles

 The electronic state is 1-A.
 Alpha  occ. eigenvalues -- -482.73893-101.44014 -62.42010 -56.25178 -56.24930
 Alpha  occ. eigenvalues --  -56.24923 -19.16500 -19.16344 -19.16305 -19.16287
 Alpha  occ. eigenvalues --  -19.15228 -19.15145 -19.15031 -19.14942 -14.53567
 Alpha  occ. eigenvalues --  -14.53456 -14.51789 -14.51685  -9.39216  -8.63718
 Alpha  occ. eigenvalues --   -7.15939  -7.15247  -7.15236  -6.46793  -6.45920
 Alpha  occ. eigenvalues --   -6.45897  -4.01950  -2.58257  -2.58022  -2.58004
 Alpha  occ. eigenvalues --   -2.57318  -2.57318  -2.23127  -2.23083  -2.22945
 Alpha  occ. eigenvalues --   -1.21002  -1.20733  -1.19320  -1.19187  -1.04064
 Alpha  occ. eigenvalues --   -1.03946  -1.02321  -1.02196  -0.74421  -0.71221
 Alpha  occ. eigenvalues --   -0.64346  -0.63354  -0.63024  -0.60942  -0.54575
 Alpha  occ. eigenvalues --   -0.53733  -0.53110  -0.52693  -0.51815  -0.50876
 Alpha  occ. eigenvalues --   -0.50469  -0.50381  -0.50046  -0.49827  -0.49336
 Alpha  occ. eigenvalues --   -0.49177  -0.36767  -0.36518  -0.36354  -0.35641
 Alpha  occ. eigenvalues --   -0.35242  -0.31685  -0.31090  -0.30596  -0.30471
 Alpha  occ. eigenvalues --   -0.30133  -0.29538  -0.29064  -0.28758  -0.27776
 Alpha  occ. eigenvalues --   -0.26358  -0.26181  -0.25912  -0.25032  -0.24618
 Alpha  occ. eigenvalues --   -0.24554  -0.23383
 Alpha virt. eigenvalues --   -0.10023  -0.08075  -0.05031  -0.04923  -0.04773
 Alpha virt. eigenvalues --   -0.03480   0.05902   0.06061   0.06779   0.10863
 Alpha virt. eigenvalues --    0.22878   0.23201   0.24564   0.27487   0.31617

 Mulliken charges:
               1
     1  Pt   0.076031
     2  N    0.148616
     3  O   -0.284755
     4  O   -0.275363
     5  N    0.157404
     6  N    0.148509
     7  O   -0.277386
     8  O   -0.286474
     9  O   -0.245425
    10  O   -0.255334
    11  Cl  -0.288679
    12  N    0.143727
    13  O   -0.253772
    14  O   -0.255327
    15  Br  -0.251771
 Sum of Mulliken charges =  -2.00000

 Dipole moment (field-independent basis, Debye):
    X=              1.1455    Y=             -0.1393    Z=              0.9091  Tot=              1.4690
 Quadrupole moment (field-independent basis, Debye-Ang):
   XX=           -155.0998   YY=           -159.0338   ZZ=           -152.3633
   XY=              0.7711   XZ=              3.1808   YZ=             -0.0418

  Exact polarizability: 235.452  -0.562 197.471  -5.379  -1.159 196.469
 Approx polarizability: 360.512  -2.564 294.709 -19.382  -2.840 302.898

 ******    1 imaginary frequencies (negative Signs) ******

                      1                      2                      3
                      A                      A                      A
 Frequencies --    -30.1887                26.9930                53.3478
 Red. masses --     16.2909                16.9801                16.3034
 Frc consts  --      0.0087                 0.0073                 0.0273
 IR Inten    --      0.0781                 0.1799                 0.8286

                      4                      5                      6
                      A                      A                      A
 Frequencies --     65.1292                83.5983                93.2228
 Red. masses --     17.0304                26.6324                23.3174
 Frc consts  --      0.0426                 0.1097                 0.1194
 IR Inten    --      0.2164                 0.5564                 0.2793

                      7                      8                      9
                      A                      A                      A
 Frequencies --    100.5083               104.1825               112.3505
 Red. masses --     21.1302                19.6579                18.7758
 Frc consts  --      0.1258                 0.1257                 0.1396
 IR Inten    --      0.6266                 1.4820                 0.9991

                     10                     11                     12
                      A                      A                      A
 Frequencies --    116.1369               127.4972               131.2458
 Red. masses --     17.8203                21.4926                23.7595
 Frc consts  --      0.1416                 0.2058                 0.2411
 IR Inten    --      1.9125                 0.1380                 0.1468

                     13                     14                     15
                      A                      A                      A
 Frequencies --    138.1555               180.6707               233.8141
 Red. masses --     19.5987                51.0228                15.9379
 Frc consts  --      0.2204                 0.9813                 0.5134
 IR Inten    --      0.0942                33.0079                 8.1036

                     16                     17                     18
                      A                      A                      A
 Frequencies --    247.5798               250.3613               267.4860
 Red. masses --     19.2377                18.3653                16.1412
 Frc consts  --      0.6948                 0.6782                 0.6804
 IR Inten    --     97.5762                26.4552                13.2161

                     19                     20                     21
                      A                      A                      A
 Frequencies --    271.4975               278.2522               316.4591
 Red. masses --     16.7749                26.0477                18.3345
 Frc consts  --      0.7285                 1.1882                 1.0818
 IR Inten    --      3.0689                80.7222                13.9088

                     22                     23                     24
                      A                      A                      A
 Frequencies --    327.2851               347.4415               531.9995
 Red. masses --     17.1854                19.0904                14.3849
 Frc consts  --      1.0846                 1.3578                 2.3987
 IR Inten    --      3.9923                 7.0611                 1.1142

                     25                     26                     27
                      A                      A                      A
 Frequencies --    600.5739               608.2953               615.1510
 Red. masses --     14.3804                14.3962                14.4982
 Frc consts  --      3.0560                 3.1385                 3.2324
 IR Inten    --     17.4764                15.3592                34.2465

                     28                     29                     30
                      A                      A                      A
 Frequencies --    820.1305               825.3017               840.6525
 Red. masses --     15.2941                15.2930                15.3512
 Frc consts  --      6.0609                 6.1372                 6.3918
 IR Inten    --    148.1874               218.4812               283.3830

                     31                     32                     33
                      A                      A                      A
 Frequencies --    853.7236              1389.2303              1395.1123
 Red. masses --     15.3785                15.1537                15.1355
 Frc consts  --      6.6039                17.2313                17.3566
 IR Inten    --    120.7893               781.8479               389.0864

                     34                     35                     36
                      A                      A                      A
 Frequencies --   1406.2535              1456.2171              1599.5499
 Red. masses --     15.0362                15.0252                14.6641
 Frc consts  --     17.5192                18.7725                22.1056
 IR Inten    --   1167.0975               513.6799               158.9460

                     37                     38                     39
                      A                      A                      A
 Frequencies --   1612.5342              1635.9184              1643.1391
 Red. masses --     14.6443                14.6453                14.6429
 Frc consts  --     22.4356                23.0926                23.2930
 IR Inten    --    936.5855               546.1073               552.9890

 - Thermochemistry -
 -------------------
 Temperature   298.150 Kelvin.  Pressure   1.00000 Atm.
 Atom     1 has atomic number 78 and mass 194.96480

 Molecular mass:   492.82360 amu.
 Principal axes and moments of inertia in atomic units:
                           1         2         3
     Eigenvalues --  4225.531185097.158795393.78124
           X            0.99993  -0.00503  -0.01114
           Y            0.00510   0.99997   0.00661
           Z            0.01110  -0.00667   0.99992
 This molecule is an asymmetric top.
 Rotational symmetry number  1.
 Warning -- assumption of classical behavior for rotation
           may cause significant error
 Rotational temperatures (Kelvin)      0.02050     0.01699     0.01606
 Rotational constants (GHZ):           0.42710     0.35407     0.33460
    1 imaginary frequencies ignored.
 Zero-point vibrational energy     129836.7 (Joules/Mol)
                                   31.03171 (Kcal/Mol)
 Warning -- explicit consideration of  26 degrees of freedom as
           vibrations may cause significant error
 Vibrational temperatures:     38.84    76.76    93.71   120.28   134.13
          (Kelvin)            144.61   149.90   161.65   167.09   183.44
                              188.83   198.77   259.94   336.41   356.21
                              360.21   384.85   390.62   400.34   455.31
                              470.89   499.89   765.43   864.09   875.20
                              885.06  1179.98  1187.42  1209.51  1228.32
                             1998.79  2007.25  2023.28  2095.17  2301.39
                             2320.07  2353.72  2364.11

 Zero-point correction=                           0.049452 (Hartree/Particle)
 Thermal correction to Energy=                    0.066795
 Thermal correction to Enthalpy=                  0.067739
 Thermal correction to Gibbs Free Energy=         0.000820
 Sum of electronic and zero-point Energies=          -3973.289936
 Sum of electronic and thermal Energies=             -3973.272594
 Sum of electronic and thermal Enthalpies=           -3973.271650
 Sum of electronic and thermal Free Energies=        -3973.338569

                     E (Thermal)             CV                S
                      KCal/Mol        Cal/Mol-Kelvin    Cal/Mol-Kelvin
 Total                   41.914             53.747            140.843
 Electronic               0.000              0.000              0.000
 Translational            0.889              2.981             44.472
 Rotational               0.889              2.981             33.118
 Vibrational             40.137             47.786             63.252
 Vibration     1          0.593              1.984              6.039
 Vibration     2          0.596              1.976              4.689
 Vibration     3          0.597              1.971              4.295
 Vibration     4          0.600              1.960              3.805
 Vibration     5          0.602              1.954              3.591
 Vibration     6          0.604              1.949              3.444
 Vibration     7          0.605              1.946              3.375
 Vibration     8          0.607              1.939              3.228
 Vibration     9          0.608              1.936              3.164
 Vibration    10          0.611              1.926              2.983
 Vibration    11          0.612              1.922              2.928
 Vibration    12          0.614              1.915              2.829
 Vibration    13          0.630              1.866              2.321
 Vibration    14          0.654              1.789              1.849
 Vibration    15          0.661              1.767              1.748
 Vibration    16          0.663              1.762              1.728
 Vibration    17          0.673              1.733              1.612
 Vibration    18          0.675              1.726              1.587
 Vibration    19          0.679              1.714              1.544
 Vibration    20          0.703              1.642              1.328
 Vibration    21          0.711              1.621              1.273
 Vibration    22          0.725              1.580              1.178
 Vibration    23          0.887              1.179              0.583
 Vibration    24          0.959              1.031              0.449
 Vibration    25          0.967              1.014              0.436
 Vibration    26          0.975              1.000              0.424

 Normal termination of Gaussian 09 at Wed Aug 18 16:26:38 2021.
